      -----------------------------------------------------------      
     |                   =====================                   |     
     |                           x T B                           |     
     |                   =====================                   |     
     |                         S. Grimme                         |     
     |          Mulliken Center for Theoretical Chemistry        |     
     |                    University of Bonn                     |     
      -----------------------------------------------------------      

   * xtb version 6.4.1 (afa7bdf) compiled by 'ehlert@majestix' on 2021-06-10

   xtb is free software: you can redistribute it and/or modify it under
   the terms of the GNU Lesser General Public License as published by
   the Free Software Foundation, either version 3 of the License, or
   (at your option) any later version.
   
   xtb is distributed in the hope that it will be useful,
   but WITHOUT ANY WARRANTY; without even the implied warranty of
   MERCHANTABILITY or FITNESS FOR A PARTICULAR PURPOSE.  See the
   GNU Lesser General Public License for more details.
   
   Cite this work as:
   * C. Bannwarth, E. Caldeweyher, S. Ehlert, A. Hansen, P. Pracht,
     J. Seibert, S. Spicher, S. Grimme, WIREs Comput. Mol. Sci., 2020, 11,
     e01493. DOI: 10.1002/wcms.1493
   
   for GFN2-xTB:
   * C. Bannwarth, S. Ehlert and S. Grimme., J. Chem. Theory Comput., 2019,
     15, 1652-1671. DOI: 10.1021/acs.jctc.8b01176
   for GFN1-xTB:
   * S. Grimme, C. Bannwarth, P. Shushkov, J. Chem. Theory Comput., 2017,
     13, 1989-2009. DOI: 10.1021/acs.jctc.7b00118
   for GFN0-xTB:
   * P. Pracht, E. Caldeweyher, S. Ehlert, S. Grimme, ChemRxiv, 2019, preprint.
     DOI: 10.26434/chemrxiv.8326202.v1
   for GFN-FF:
   * S. Spicher and S. Grimme, Angew. Chem. Int. Ed., 2020, 59, 15665-15673.
     DOI: 10.1002/anie.202004239
   
   for DFT-D4:
   * E. Caldeweyher, C. Bannwarth and S. Grimme, J. Chem. Phys., 2017,
     147, 034112. DOI: 10.1063/1.4993215
   * E. Caldeweyher, S. Ehlert, A. Hansen, H. Neugebauer, S. Spicher,
     C. Bannwarth and S. Grimme, J. Chem. Phys., 2019, 150, 154122.
     DOI: 10.1063/1.5090222
   * E. Caldeweyher, J.-M. Mewes, S. Ehlert and S. Grimme, Phys. Chem. Chem. Phys.
     2020, 22, 8499-8512. DOI: 10.1039/D0CP00502A
   
   for sTDA-xTB:
   * S. Grimme and C. Bannwarth, J. Chem. Phys., 2016, 145, 054103.
     DOI: 10.1063/1.4959605
   
   in the mass-spec context:
   * V. Asgeirsson, C. Bauer and S. Grimme, Chem. Sci., 2017, 8, 4879.
     DOI: 10.1039/c7sc00601b
   * J. Koopman and S. Grimme, ACS Omega 2019, 4, 12, 15120-15133.
     DOI: 10.1021/acsomega.9b02011
   
   for metadynamics refer to:
   * S. Grimme, J. Chem. Theory Comput., 2019, 155, 2847-2862
     DOI: 10.1021/acs.jctc.9b00143
   
   for SPH calculations refer to:
   * S. Spicher and S. Grimme, J. Chem. Theory Comput., 2021, 17, 1701-1714
     DOI: 10.1021/acs.jctc.0c01306
   
   with help from (in alphabetical order)
   P. Atkinson, C. Bannwarth, F. Bohle, G. Brandenburg, E. Caldeweyher
   M. Checinski, S. Dohm, S. Ehlert, S. Ehrlich, I. Gerasimov, J. Koopman
   C. Lavigne, S. Lehtola, F. März, M. Müller, F. Musil, H. Neugebauer
   J. Pisarek, C. Plett, P. Pracht, J. Seibert, P. Shushkov, S. Spicher
   M. Stahn, M. Steiner, T. Strunk, J. Stückrath, T. Rose, and J. Unsleber
   
 * started run on 2022/11/02 at 18:13:38.966     

           -------------------------------------------------
          |                Calculation Setup                |
           -------------------------------------------------

          program call               : /lustre/hpc/kemi/borup/pKalculator/dep/xtb-6.4.1/bin/xtb --gfn 2 /lustre/hpc/kemi/borup/pKalculator/calc/test#-1=11/conf05/test#-1=11_conf05_gfn2.xyz --opt --lmo --chrg -1 --uhf 0
          hostname                   : fend01.cluster
          coordinate file            : /lustre/hpc/kemi/borup/pKalculator/calc/test#-1=11/conf05/test#-1=11_conf05_gfn2.xyz
          omp threads                :                     1
          number of atoms            :                    18
          number of electrons        :                    56
          charge                     :                    -1
          spin                       :                   0.0
          first test random number   :      0.44496701742625

   ID    Z sym.   atoms
    1    6 C      1-5, 8-10
    2    7 N      6, 7
    3   16 S      11
    4    1 H      12-18

           -------------------------------------------------
          |                 G F N 2 - x T B                 |
           -------------------------------------------------

        Reference                      10.1021/acs.jctc.8b01176
      * Hamiltonian:
        H0-scaling (s, p, d)           1.850000    2.230000    2.230000
        zeta-weighting                 0.500000
      * Dispersion:
        s8                             2.700000
        a1                             0.520000
        a2                             5.000000
        s9                             5.000000
      * Repulsion:
        kExp                           1.500000    1.000000
        rExp                           1.000000
      * Coulomb:
        alpha                          2.000000
        third order                    shell-resolved
        anisotropic                    true
        a3                             3.000000
        a5                             4.000000
        cn-shift                       1.200000
        cn-exp                         4.000000
        max-rad                        5.000000


          ...................................................
          :                      SETUP                      :
          :.................................................:
          :  # basis functions                  57          :
          :  # atomic orbitals                  56          :
          :  # shells                           30          :
          :  # electrons                        56          :
          :  max. iterations                   250          :
          :  Hamiltonian                  GFN2-xTB          :
          :  restarted?                      false          :
          :  GBSA solvation                  false          :
          :  PC potential                    false          :
          :  electronic temp.          300.0000000     K    :
          :  accuracy                    1.0000000          :
          :  -> integral cutoff          0.2500000E+02      :
          :  -> integral neglect         0.1000000E-07      :
          :  -> SCF convergence          0.1000000E-05 Eh   :
          :  -> wf. convergence          0.1000000E-03 e    :
          :  Broyden damping             0.4000000          :
          ...................................................

 iter      E             dE          RMSdq      gap      omega  full diag
   1    -30.1635371 -0.301635E+02  0.433E+00    2.95       0.0  T
   2    -29.0436137  0.111992E+01  0.633E+00    0.47       1.0  T
   3    -30.2147016 -0.117109E+01  0.285E+00    3.36       1.0  T
   4    -30.2645698 -0.498682E-01  0.181E+00    2.41       1.0  T
   5    -30.2810397 -0.164699E-01  0.131E+00    2.04       1.0  T
   6    -30.2944164 -0.133767E-01  0.950E-01    1.48       1.0  T
   7    -30.3015636 -0.714721E-02  0.670E-01    1.05       1.0  T
   8    -30.3064897 -0.492609E-02  0.369E-01    0.63       1.0  T
   9    -30.3083461 -0.185637E-02  0.183E-01    0.36       1.0  T
  10    -30.3087725 -0.426380E-03  0.576E-02    0.21       1.0  T
  11    -30.3087150  0.574337E-04  0.783E-02    0.29       1.0  T
  12    -30.3088296 -0.114536E-03  0.418E-02    0.26       1.0  T
  13    -30.3088726 -0.429833E-04  0.447E-03    0.24       5.3  T
  14    -30.3088677  0.489894E-05  0.135E-02    0.23       1.7  T
  15    -30.3088725 -0.482443E-05  0.424E-03    0.24       5.6  T
  16    -30.3088730 -0.523269E-06  0.263E-04    0.24      89.5  T
  17    -30.3088730  0.169209E-08  0.328E-04    0.24      71.9  T

   *** convergence criteria satisfied after 17 iterations ***

         #    Occupation            Energy/Eh            Energy/eV
      -------------------------------------------------------------
         1        2.0000           -0.5896839             -16.0461
       ...           ...                  ...                  ...
        22        2.0000           -0.2577406              -7.0135
        23        2.0000           -0.2486905              -6.7672
        24        2.0000           -0.2458669              -6.6904
        25        2.0000           -0.1885090              -5.1296
        26        2.0000           -0.1828121              -4.9746
        27        2.0000           -0.1647510              -4.4831
        28        1.9806           -0.1089506              -2.9647 (HOMO)
        29        0.0194           -0.1001640              -2.7256 (LUMO)
        30                         -0.0709283              -1.9301
        31                         -0.0420245              -1.1435
        32                          0.0077018               0.2096
        33                          0.0409539               1.1144
       ...                                ...                  ...
        56                          0.8912605              24.2524
      -------------------------------------------------------------
                  HL-Gap            0.0087866 Eh            0.2391 eV
             Fermi-level           -0.1045573 Eh           -2.8451 eV
 
 localization/xTB-IFF output generation
 averaging CT terms over            1  occ. levels
 averaging CT terms over            1  virt. levels
 dipole moment from electron density (au)
     X       Y       Z   
   3.1642   0.1076   0.8914  total (Debye):    8.360
cpu  time for init local    0.00 s
wall time for init local    0.01 s
 doing rotations ...
 initialization of trafo matrix to unity
iteration     50  convergence  0.18846319D-04

 converged in     62 iterations, threshold :   0.99766832D-06
 doing transformations ...
 lmo centers(Z=2) and atoms on file <lmocent.coord>
 LMO Fii/eV  ncent    charge center   contributions...
    1 sigma -11.60   1.97   5.04159   0.17190   1.43633    1C :  0.52    2C :  0.49
    2 sigma -11.36   1.94   4.18381   1.16915  -0.91769   11S :  0.58    2C :  0.42
    3 sigma -11.20   2.00   6.27814  -1.41491   2.41688    1C :  0.51   13H :  0.49
    4 sigma -11.20   1.99   5.78690   0.42033   3.53871    1C :  0.51   14H :  0.49
    5 sigma -11.16   1.97   7.21226   0.50507   1.85405    1C :  0.51   12H :  0.50
    6 sigma -11.13   1.90   2.68474   1.79543  -2.73747   11S :  0.61   10C :  0.39
    7 sigma -11.02   1.97  -5.71760   0.14465  -2.34554    7N :  0.53    6N :  0.48
    8 sigma -10.56   2.00   0.59405   0.06561   0.07942    3C :  0.51    4C :  0.48
    9 LP    -10.41   1.14   4.55525   4.37640  -1.68654   11S :  0.93
   10 LP    -10.38   1.15   5.30393  -0.00091  -3.81096   11S :  0.93
   11 sigma -10.24   1.99  -7.83738  -0.11885  -2.55346    7N :  0.53   16H :  0.47
   12 sigma -10.21   2.02   1.11219  -0.85591   2.15764    3C :  0.50   15H :  0.50
   13 sigma -10.19   2.01   0.40905   2.04564  -4.05876   10C :  0.50   18H :  0.49
   14 pi     -9.75   2.11   2.60746   0.57226   0.96624    2C :  0.49    3C :  0.48
   15 pi     -9.74   2.11   2.76799  -0.36007   0.51324    2C :  0.49    3C :  0.48
   16 sigma  -9.62   2.03  -1.49933   0.21662  -0.97292    4C :  0.54    5C :  0.44
   17 sigma  -9.39   1.83  -6.82201  -0.73451  -0.91602    7N :  0.65    8C :  0.36
   18 pi     -9.19   2.17   0.38450   1.47005  -1.68854   10C :  0.51    4C :  0.45
   19 pi     -9.18   2.17   0.54218   0.55356  -2.13536   10C :  0.51    4C :  0.45
   20 sigma  -8.38   2.00  -3.48351  -0.65204   0.11961    5C :  0.53    9C :  0.46
   21 sigma  -8.22   1.99  -3.74665  -1.76699   2.33748   17H :  0.55    9C :  0.45
   22 pi     -8.21   2.15  -3.82898   0.68169  -1.68524    6N :  0.52    5C :  0.44
   23 pi     -8.21   2.15  -3.68455  -0.14951  -2.08608    6N :  0.52    5C :  0.44
   24 pi     -7.05   1.57  -6.39075  -0.24324  -1.76073    7N :  0.79    6N :  0.10    8C :  0.08
   25 delpi  -6.59   2.25  -5.23456  -0.76907   0.84934    9C :  0.55    8C :  0.37
   26 delpi  -6.56   2.27  -5.08158  -1.61970   0.43432    9C :  0.55    8C :  0.37
   27 LP     -6.31   1.02  -4.35186   1.37549  -4.40099    6N :  0.99
   28 LP     -4.30   1.07  -8.08986  -2.00518   1.27114    8C :  0.97
 starting deloc pi regularization ...
 thr    2.20000000000000      # pi deloc LMO           5
 files:
 coordprot.0/xtbscreen.xyz/xtblmoinfo/lmocent.coord
 with protonation site input, xtbdock and
 LMO center info written
 

 SCC (total)                   0 d,  0 h,  0 min,  0.063 sec
 SCC setup                      ...        0 min,  0.000 sec (  0.707%)
 Dispersion                     ...        0 min,  0.000 sec (  0.562%)
 classical contributions        ...        0 min,  0.000 sec (  0.133%)
 integral evaluation            ...        0 min,  0.008 sec ( 12.770%)
 iterations                     ...        0 min,  0.024 sec ( 38.800%)
 molecular gradient             ...        0 min,  0.010 sec ( 15.440%)
 printout                       ...        0 min,  0.020 sec ( 31.484%)

         :::::::::::::::::::::::::::::::::::::::::::::::::::::
         ::                     SUMMARY                     ::
         :::::::::::::::::::::::::::::::::::::::::::::::::::::
         :: total energy             -29.888619044522 Eh    ::
         :: gradient norm              0.115616097324 Eh/a0 ::
         :: HOMO-LUMO gap              0.239095387540 eV    ::
         ::.................................................::
         :: SCC energy               -30.308873004641 Eh    ::
         :: -> isotropic ES            0.122482164344 Eh    ::
         :: -> anisotropic ES          0.003655734718 Eh    ::
         :: -> anisotropic XC          0.017614910202 Eh    ::
         :: -> dispersion             -0.018559444885 Eh    ::
         :: repulsion energy           0.420272056399 Eh    ::
         :: add. restraining           0.000000000000 Eh    ::
         :: total charge              -1.000000000000 e     ::
         :::::::::::::::::::::::::::::::::::::::::::::::::::::

      ----------------------------------------------------------- 
     |                   =====================                   |
     |                        A N C O P T                        |
     |                   =====================                   |
     |               Approximate Normal Coordinate               |
     |                Rational Function Optimizer                |
      ----------------------------------------------------------- 

          ...................................................
          :                      SETUP                      :
          :.................................................:
          :   optimization level            normal          :
          :   max. optcycles                   200          :
          :   ANC micro-cycles                  20          :
          :   degrees of freedom                48          :
          :.................................................:
          :   RF solver                   davidson          :
          :   write xtbopt.log                true          :
          :   linear?                        false          :
          :   energy convergence         0.5000000E-05 Eh   :
          :   grad. convergence          0.1000000E-02 Eh/α :
          :   maximium RF displ.         1.0000000          :
          :   Hlow (freq-cutoff)         0.1000000E-01      :
          :   Hmax (freq-cutoff)         5.0000000          :
          :   S6 in model hess.         20.0000000          :
          ...................................................

generating ANC from model Hessian ...
Using Lindh-Hessian (1995)
 Shifting diagonal of input Hessian by   8.273599604502043E-003
 Lowest  eigenvalues of input Hessian
    0.000000    0.000000    0.000000    0.000000    0.000000    0.000000
    0.010000    0.011883    0.013075    0.015819    0.020739    0.025164
    0.030758    0.040436    0.042809    0.044709    0.053157    0.054508
 Highest eigenvalues
    1.630644    1.792879    1.846784    1.903706    1.936567    2.028078
 

........................................................................
.............................. CYCLE    1 ..............................
........................................................................
   1    -30.3088730 -0.303089E+02  0.183E-04    0.24       0.0  T
   2    -30.3088730  0.499891E-08  0.396E-04    0.24      59.5  T
   3    -30.3088730 -0.577012E-08  0.655E-05    0.24     359.7  T
     SCC iter.                  ...        0 min,  0.006 sec
     gradient                   ...        0 min,  0.016 sec
 * total energy  :   -29.8886190 Eh     change       -0.3041560E-08 Eh
   gradient norm :     0.1156197 Eh/α   predicted     0.0000000E+00 (-100.00%)
   displ. norm   :     0.1860162 α      lambda       -0.1244783E-01
   maximum displ.:     0.0845915 α      in ANC's #10, #22, #20, ...

........................................................................
.............................. CYCLE    2 ..............................
........................................................................
   1    -30.3126149 -0.303126E+02  0.313E-01    0.49       0.0  T
   2    -30.3128465 -0.231616E-03  0.185E-01    0.37       1.0  T
   3    -30.3128461  0.386239E-06  0.968E-02    0.40       1.0  T
   4    -30.3129053 -0.591596E-04  0.322E-02    0.39       1.0  T
   5    -30.3129094 -0.414051E-05  0.177E-02    0.39       1.3  T
   6    -30.3129111 -0.165520E-05  0.994E-03    0.39       2.4  T
   7    -30.3129115 -0.426240E-06  0.473E-03    0.39       5.0  T
   8    -30.3129117 -0.170287E-06  0.182E-03    0.39      13.0  T
   9    -30.3129117 -0.189724E-07  0.831E-04    0.39      28.4  T
  10    -30.3129117 -0.469201E-08  0.228E-04    0.39     103.6  T
     SCC iter.                  ...        0 min,  0.015 sec
     gradient                   ...        0 min,  0.009 sec
 * total energy  :   -29.8970800 Eh     change       -0.8460972E-02 Eh
   gradient norm :     0.0460677 Eh/α   predicted    -0.6439273E-02 ( -23.89%)
   displ. norm   :     0.1601562 α      lambda       -0.3343939E-02
   maximum displ.:     0.0790355 α      in ANC's #10, #3, #7, ...

........................................................................
.............................. CYCLE    3 ..............................
........................................................................
   1    -30.3146070 -0.303146E+02  0.198E-01    0.55       0.0  T
   2    -30.3146667 -0.596289E-04  0.106E-01    0.57       1.0  T
   3    -30.3146655  0.119167E-05  0.766E-02    0.53       1.0  T
   4    -30.3147057 -0.402688E-04  0.233E-02    0.56       1.0  T
   5    -30.3147110 -0.528699E-05  0.118E-02    0.55       2.0  T
   6    -30.3147117 -0.642157E-06  0.601E-03    0.55       3.9  T
   7    -30.3147119 -0.191639E-06  0.256E-03    0.55       9.2  T
   8    -30.3147119 -0.334927E-07  0.102E-03    0.55      23.1  T
   9    -30.3147119 -0.321293E-08  0.486E-04    0.55      48.5  T
  10    -30.3147119 -0.218168E-08  0.168E-04    0.55     140.2  T
     SCC iter.                  ...        0 min,  0.011 sec
     gradient                   ...        0 min,  0.010 sec
 * total energy  :   -29.8989762 Eh     change       -0.1896132E-02 Eh
   gradient norm :     0.0117635 Eh/α   predicted    -0.1714854E-02 (  -9.56%)
   displ. norm   :     0.0922456 α      lambda       -0.2730226E-03
   maximum displ.:     0.0802797 α      in ANC's #3, #7, #12, ...

........................................................................
.............................. CYCLE    4 ..............................
........................................................................
   1    -30.3139925 -0.303140E+02  0.540E-02    0.57       0.0  T
   2    -30.3139979 -0.533578E-05  0.291E-02    0.58       1.0  T
   3    -30.3139976  0.306687E-06  0.179E-02    0.57       1.3  T
   4    -30.3140003 -0.276384E-05  0.473E-03    0.57       5.0  T
   5    -30.3140005 -0.132115E-06  0.190E-03    0.57      12.4  T
   6    -30.3140005  0.223261E-08  0.129E-03    0.57      18.3  T
   7    -30.3140005 -0.197242E-07  0.417E-04    0.57      56.5  T
   8    -30.3140005 -0.328313E-09  0.254E-04    0.57      92.6  T
     SCC iter.                  ...        0 min,  0.009 sec
     gradient                   ...        0 min,  0.010 sec
 * total energy  :   -29.8991709 Eh     change       -0.1947498E-03 Eh
   gradient norm :     0.0060520 Eh/α   predicted    -0.1376728E-03 ( -29.31%)
   displ. norm   :     0.1177949 α      lambda       -0.1556357E-03
   maximum displ.:     0.1108137 α      in ANC's #3, #7, #12, ...

........................................................................
.............................. CYCLE    5 ..............................
........................................................................
   1    -30.3135102 -0.303135E+02  0.493E-02    0.57       0.0  T
   2    -30.3135152 -0.501520E-05  0.293E-02    0.57       1.0  T
   3    -30.3135148  0.449300E-06  0.169E-02    0.57       1.4  T
   4    -30.3135174 -0.264044E-05  0.682E-03    0.57       3.5  T
   5    -30.3135178 -0.378073E-06  0.249E-03    0.57       9.5  T
   6    -30.3135179 -0.683661E-07  0.103E-03    0.57      23.0  T
   7    -30.3135179 -0.415105E-08  0.413E-04    0.57      57.1  T
   8    -30.3135179 -0.107872E-08  0.216E-04    0.57     109.0  T
     SCC iter.                  ...        0 min,  0.009 sec
     gradient                   ...        0 min,  0.010 sec
 * total energy  :   -29.8992672 Eh     change       -0.9632355E-04 Eh
   gradient norm :     0.0033627 Eh/α   predicted    -0.7889842E-04 ( -18.09%)
   displ. norm   :     0.0521506 α      lambda       -0.3084636E-04
   maximum displ.:     0.0504163 α      in ANC's #3, #4, #5, ...

........................................................................
.............................. CYCLE    6 ..............................
........................................................................
   1    -30.3138523 -0.303139E+02  0.170E-02    0.56       0.0  T
   2    -30.3138526 -0.319644E-06  0.104E-02    0.56       2.3  T
   3    -30.3138524  0.269384E-06  0.741E-03    0.56       3.2  T
   4    -30.3138530 -0.621652E-06  0.190E-03    0.56      12.4  T
   5    -30.3138530 -0.237978E-07  0.813E-04    0.56      29.0  T
   6    -30.3138530 -0.346461E-08  0.471E-04    0.56      50.0  T
     SCC iter.                  ...        0 min,  0.007 sec
     gradient                   ...        0 min,  0.010 sec
 * total energy  :   -29.8992907 Eh     change       -0.2348050E-04 Eh
   gradient norm :     0.0022112 Eh/α   predicted    -0.1546486E-04 ( -34.14%)
   displ. norm   :     0.0412070 α      lambda       -0.1852032E-04
   maximum displ.:     0.0382701 α      in ANC's #3, #4, #5, ...

........................................................................
.............................. CYCLE    7 ..............................
........................................................................
   1    -30.3143052 -0.303143E+02  0.135E-02    0.56       0.0  T
   2    -30.3143052 -0.431482E-07  0.790E-03    0.55       3.0  T
   3    -30.3143049  0.348842E-06  0.658E-03    0.56       3.6  T
   4    -30.3143054 -0.549568E-06  0.102E-03    0.56      23.1  T
   5    -30.3143054 -0.664417E-08  0.539E-04    0.56      43.7  T
   6    -30.3143054 -0.154759E-08  0.263E-04    0.56      89.8  T
     SCC iter.                  ...        0 min,  0.007 sec
     gradient                   ...        0 min,  0.010 sec
 * total energy  :   -29.8993045 Eh     change       -0.1379350E-04 Eh
   gradient norm :     0.0010758 Eh/α   predicted    -0.9277351E-05 ( -32.74%)
   displ. norm   :     0.0535010 α      lambda       -0.9179646E-05
   maximum displ.:     0.0467460 α      in ANC's #3, #4, #5, ...

........................................................................
.............................. CYCLE    8 ..............................
........................................................................
   1    -30.3145249 -0.303145E+02  0.176E-02    0.55       0.0  T
   2    -30.3145251 -0.174758E-06  0.103E-02    0.55       2.3  T
   3    -30.3145248  0.367092E-06  0.791E-03    0.55       3.0  T
   4    -30.3145254 -0.654161E-06  0.174E-03    0.55      13.6  T
   5    -30.3145254 -0.382709E-07  0.557E-04    0.55      42.3  T
   6    -30.3145254 -0.111267E-08  0.254E-04    0.55      92.7  T
     SCC iter.                  ...        0 min,  0.007 sec
     gradient                   ...        0 min,  0.009 sec
 * total energy  :   -29.8993134 Eh     change       -0.8945912E-05 Eh
   gradient norm :     0.0011695 Eh/α   predicted    -0.4594782E-05 ( -48.64%)
   displ. norm   :     0.0338769 α      lambda       -0.3699708E-05
   maximum displ.:     0.0257188 α      in ANC's #3, #4, #5, ...

........................................................................
.............................. CYCLE    9 ..............................
........................................................................
   1    -30.3143417 -0.303143E+02  0.112E-02    0.55       0.0  T
   2    -30.3143418 -0.559949E-07  0.677E-03    0.55       3.5  T
   3    -30.3143416  0.159337E-06  0.499E-03    0.55       4.7  T
   4    -30.3143419 -0.272260E-06  0.103E-03    0.55      22.9  T
   5    -30.3143419 -0.107686E-07  0.390E-04    0.55      60.4  T
   6    -30.3143419 -0.529514E-09  0.189E-04    0.55     124.7  T
     SCC iter.                  ...        0 min,  0.007 sec
     gradient                   ...        0 min,  0.010 sec
 * total energy  :   -29.8993178 Eh     change       -0.4350581E-05 Eh
   gradient norm :     0.0007651 Eh/α   predicted    -0.1852980E-05 ( -57.41%)
   displ. norm   :     0.0596164 α      lambda       -0.4508552E-05
   maximum displ.:     0.0367999 α      in ANC's #3, #4, #5, ...

   *** GEOMETRY OPTIMIZATION CONVERGED AFTER 9 ITERATIONS ***

------------------------------------------------------------------------
 total energy gain   :        -0.0106988 Eh       -6.7136 kcal/mol
 total RMSD          :         0.1435930 a0        0.0760 Å
 total power (kW/mol):        -3.1210631 (step) -120.4976 (real)
------------------------------------------------------------------------

 ANCopt (total)                0 d,  0 h,  0 min,  0.233 sec
 optimizer setup                ...        0 min,  0.001 sec (  0.243%)
 model hessian                  ...        0 min,  0.005 sec (  2.043%)
 ANC generation                 ...        0 min,  0.001 sec (  0.466%)
 coordinate transformation      ...        0 min,  0.000 sec (  0.062%)
 single point calculation       ...        0 min,  0.221 sec ( 94.980%)
 optimization log               ...        0 min,  0.002 sec (  0.964%)
 hessian update                 ...        0 min,  0.000 sec (  0.053%)
 rational function              ...        0 min,  0.002 sec (  0.859%)

================
 final structure:
================
18
 xtb: 6.4.1 (afa7bdf)
C         3.25002711322216   -0.01985929904728    1.18808521508084
C         2.04634086483255    0.19636034821228    0.33149900262359
C         0.76108632456287   -0.14452656454951    0.58105865038712
C        -0.15358835689268    0.19931599771292   -0.46254191586759
C        -1.56719844464465   -0.06080115846551   -0.42672911341123
N        -2.36888412649164    0.29129474206790   -1.44649778636050
N        -3.58972033583796   -0.12393409623138   -1.02084616225538
C        -3.67455337671594   -0.72715716505370    0.20343853328535
C        -2.31888619766610   -0.68080293502563    0.59310198495448
C         0.49372436619640    0.80755166727737   -1.49837701379635
S         2.19936694305607    0.96819688437157   -1.22426968049963
H         4.11090330181055    0.49513674988069    0.76665220481101
H         3.48640353729056   -1.08376300816816    1.26202702504957
H         3.07505150977943    0.35611459689383    2.19723724219039
H         0.45325361999757   -0.63221656372764    1.49067908741961
H        -4.36781698662284    0.04215007718564   -1.64539345782387
H        -1.90964424166729   -1.05772242561275    1.52325648682143
H         0.07413448579091    1.17466315227936   -2.41238230260885
 
 Bond Distances (Angstroems)
 ---------------------------
C1-C2=1.4931         C1-H12=1.0881        C1-H13=1.0924        C1-H14=1.0910        C2-C1=1.4931         C2-C3=1.3529         
C2-S11=1.7434        C3-C2=1.3529         C3-C4=1.4297         C3-H15=1.0770        C4-C3=1.4297         C4-C5=1.4378         
C4-C10=1.3645        C5-C4=1.4378         C5-N6=1.3441         C5-C9=1.4105         N6-C5=1.3441         N6-N7=1.3580         
N7-N6=1.3580         N7-C8=1.3675         N7-H16=1.0115        C8-N7=1.3675         C8-C9=1.4113         C9-C5=1.4105         
C9-C8=1.4113         C9-H17=1.0839        C10-C4=1.3645        C10-S11=1.7350       C10-H18=1.0706       S11-C2=1.7434        
S11-C10=1.7350       H12-C1=1.0881        H13-C1=1.0924        H14-C1=1.0910        H15-C3=1.0770        H16-N7=1.0115        
H17-C9=1.0839        H18-C10=1.0706       
 C  H  Rav=1.0838 sigma=0.0078  Rmin=1.0706  Rmax=1.0924     6
 C  C  Rav=1.4143 sigma=0.0435  Rmin=1.3529  Rmax=1.4931     7
 N  H  Rav=1.0115 sigma=0.0000  Rmin=1.0115  Rmax=1.0115     1
 N  C  Rav=1.3558 sigma=0.0117  Rmin=1.3441  Rmax=1.3675     2
 N  N  Rav=1.3580 sigma=0.0000  Rmin=1.3580  Rmax=1.3580     1
 S  C  Rav=1.7392 sigma=0.0042  Rmin=1.7350  Rmax=1.7434     2
 
 selected bond angles (degree)
 --------------------
H12-C1-C2=110.31               H13-C1-C2=110.75               H13-C1-H12=108.42              H14-C1-C2=110.58               
H14-C1-H12=108.79              H14-C1-H13=107.92              C3-C2-C1=128.58                S11-C2-C1=120.35               
S11-C2-C3=111.07               C4-C3-C2=114.36                H15-C3-C2=122.78               H15-C3-C4=122.86               
C5-C4-C3=124.56                C10-C4-C3=110.97               C10-C4-C5=124.47               N6-C5-C4=121.34                
C9-C5-C4=128.43                C9-C5-N6=110.23                N7-N6-C5=102.61                C8-N7-N6=118.12                
H16-N7-N6=116.61               H16-N7-C8=125.28               C9-C8-N7= 99.97                C8-C9-C5=109.07                
H17-C9-C5=124.90               H17-C9-C8=126.03               S11-C10-C4=112.81              H18-C10-C4=127.95              
H18-C10-S11=119.24             
 
 selected dihedral angles (degree)
 ---------------------------------
C3-C2-C1-H12=188.09           C3-C2-C1-H13= 68.05           C3-C2-C1-H14=308.47           S11-C2-C1-H12=  8.70          
S11-C2-C1-H13=248.67          S11-C2-C1-H14=129.08          C4-C3-C2-C1=180.52            C4-C3-C2-S11=359.95           
H15-C3-C2-C1=  0.64           H15-C3-C2-S11=180.07          C5-C4-C3-C2=180.01            C5-C4-C3-H15=359.89           
C10-C4-C3-C2=  0.00           C10-C4-C3-H15=179.90          N6-C5-C4-C3=179.99            N6-C5-C4-C10=359.97           
C9-C5-C4-C3=359.94            C9-C5-C4-C10=179.93           N7-N6-C5-C4=179.96            N7-N6-C5-C9=  0.00            
C8-N7-N6-C5=  0.00            H16-N7-N6-C5=180.00           C9-C8-N7-N6=  0.00            C9-C8-N7-H16=180.00           
C8-C9-C5-C4=180.04            C8-C9-C5-N6=  0.00            H17-C9-C5-C4=  0.03           H17-C9-C5-N6=179.99           
C5-C9-C8-N7=  0.00            H17-C9-C8-N7=180.02           S11-C10-C4-C3=  0.00          S11-C10-C4-C5=180.03          
H18-C10-C4-C3=180.03          H18-C10-C4-C5=  0.04          
           -------------------------------------------------
          |                Final Singlepoint                |
           -------------------------------------------------

          ...................................................
          :                      SETUP                      :
          :.................................................:
          :  # basis functions                  57          :
          :  # atomic orbitals                  56          :
          :  # shells                           30          :
          :  # electrons                        56          :
          :  max. iterations                   250          :
          :  Hamiltonian                  GFN2-xTB          :
          :  restarted?                      false          :
          :  GBSA solvation                  false          :
          :  PC potential                    false          :
          :  electronic temp.          300.0000000     K    :
          :  accuracy                    1.0000000          :
          :  -> integral cutoff          0.2500000E+02      :
          :  -> integral neglect         0.1000000E-07      :
          :  -> SCF convergence          0.1000000E-05 Eh   :
          :  -> wf. convergence          0.1000000E-03 e    :
          :  Broyden damping             0.4000000          :
          ...................................................

 iter      E             dE          RMSdq      gap      omega  full diag
   1    -30.3143419 -0.303143E+02  0.829E-05    0.55       0.0  T
   2    -30.3143419 -0.267768E-10  0.647E-05    0.55     364.2  T
   3    -30.3143419 -0.532090E-10  0.316E-05    0.55     745.1  T

   *** convergence criteria satisfied after 3 iterations ***

         #    Occupation            Energy/Eh            Energy/eV
      -------------------------------------------------------------
         1        2.0000           -0.5928286             -16.1317
       ...           ...                  ...                  ...
        22        2.0000           -0.2613587              -7.1119
        23        2.0000           -0.2481257              -6.7518
        24        2.0000           -0.2447492              -6.6600
        25        2.0000           -0.1889791              -5.1424
        26        2.0000           -0.1851060              -5.0370
        27        2.0000           -0.1578292              -4.2948
        28        2.0000           -0.1224037              -3.3308 (HOMO)
        29        0.0000           -0.1020433              -2.7767 (LUMO)
        30                         -0.0740244              -2.0143
        31                         -0.0427601              -1.1636
        32                          0.0133166               0.3624
        33                          0.0331930               0.9032
       ...                                ...                  ...
        56                          0.8688953              23.6438
      -------------------------------------------------------------
                  HL-Gap            0.0203604 Eh            0.5540 eV
             Fermi-level           -0.1122235 Eh           -3.0538 eV
 
 localization/xTB-IFF output generation
 averaging CT terms over            1  occ. levels
 averaging CT terms over            1  virt. levels
 dipole moment from electron density (au)
     X       Y       Z   
   3.3757   0.1446   0.8892  total (Debye):    8.881
cpu  time for init local    0.00 s
wall time for init local    0.00 s
 doing rotations ...
 initialization of trafo matrix to unity
iteration     50  convergence  0.45245154D-05

 converged in     57 iterations, threshold :   0.99852802D-06
 doing transformations ...
 lmo centers(Z=2) and atoms on file <lmocent.coord>
 LMO Fii/eV  ncent    charge center   contributions...
    1 sigma -11.60   1.97   5.02636   0.16870   1.44233    1C :  0.52    2C :  0.49
    2 sigma -11.44   1.93   4.11942   1.12742  -0.86259   11S :  0.59    2C :  0.41
    3 sigma -11.25   1.99   5.89924   0.43637   3.48713    1C :  0.51   14H :  0.49
    4 sigma -11.25   2.00   6.40573  -1.35917   2.31782    1C :  0.51   13H :  0.49
    5 sigma -11.21   1.97   7.20669   0.60628   1.71482    1C :  0.51   12H :  0.49
    6 sigma -11.17   1.89   2.64234   1.73156  -2.64990   11S :  0.61   10C :  0.39
    7 sigma -10.77   1.98  -5.67195   0.17408  -2.33915    7N :  0.53    6N :  0.47
    8 sigma -10.68   2.00   0.54000   0.02189   0.16220    3C :  0.52    4C :  0.48
    9 LP    -10.47   1.15   4.49037   4.31244  -1.62442   11S :  0.93
   10 LP    -10.46   1.15   5.23733  -0.06148  -3.72214   11S :  0.93
   11 sigma -10.31   2.02   1.06462  -0.87948   2.23304    3C :  0.50   15H :  0.50
   12 sigma -10.24   1.99  -7.72066  -0.03385  -2.67555    7N :  0.53   16H :  0.47
   13 sigma -10.21   2.01   0.42386   1.99212  -3.98341   10C :  0.50   18H :  0.50
   14 pi     -9.86   2.11   2.54578   0.54099   1.03196    2C :  0.50    3C :  0.48
   15 pi     -9.85   2.10   2.70457  -0.39877   0.58144    2C :  0.49    3C :  0.48
   16 sigma  -9.82   2.02  -1.53426   0.15089  -0.84739    4C :  0.54    5C :  0.45
   17 pi     -9.23   2.17   0.48360   0.48879  -2.03955   10C :  0.51    4C :  0.45
   18 pi     -9.23   2.18   0.32663   1.40895  -1.59632   10C :  0.51    4C :  0.45
   19 sigma  -8.68   2.01  -3.57079  -0.57486   0.23805    5C :  0.53    9C :  0.47
   20 pi     -8.42   1.76  -6.81570  -0.18217  -1.02708    7N :  0.70    8C :  0.28
   21 sigma  -8.25   1.99  -3.83721  -1.78466   2.35525   17H :  0.55    9C :  0.45
   22 pi     -8.16   2.09  -3.87093   0.66327  -1.70183    6N :  0.56    5C :  0.40
   23 pi     -8.12   2.10  -3.75005  -0.15285  -2.09182    6N :  0.56    5C :  0.40
   24 pi     -8.05   1.72  -6.61000  -0.91145  -1.51959    7N :  0.72    8C :  0.24
   25 sigma  -7.85   1.99  -5.61027  -1.29781   0.84233    9C :  0.55    8C :  0.45
   26 LP     -6.20   1.02  -4.21105   1.38352  -4.36603    6N :  0.99
   27 delpi  -4.95   2.64  -4.44320  -1.09596   0.27569    9C :  0.56    5C :  0.18    8C :  0.17
   28 LP     -4.59   1.05  -8.49766  -2.03174   1.19707    8C :  0.98
 starting deloc pi regularization ...
 thr    2.20000000000000      # pi deloc LMO           5
 files:
 coordprot.0/xtbscreen.xyz/xtblmoinfo/lmocent.coord
 with protonation site input, xtbdock and
 LMO center info written
 

 SCC (total)                   0 d,  0 h,  0 min,  0.034 sec
 SCC setup                      ...        0 min,  0.000 sec (  0.442%)
 Dispersion                     ...        0 min,  0.000 sec (  0.329%)
 classical contributions        ...        0 min,  0.000 sec (  0.103%)
 integral evaluation            ...        0 min,  0.004 sec ( 12.822%)
 iterations                     ...        0 min,  0.004 sec ( 11.538%)
 molecular gradient             ...        0 min,  0.010 sec ( 27.924%)
 printout                       ...        0 min,  0.016 sec ( 46.712%)

         :::::::::::::::::::::::::::::::::::::::::::::::::::::
         ::                     SUMMARY                     ::
         :::::::::::::::::::::::::::::::::::::::::::::::::::::
         :: total energy             -29.899317796075 Eh    ::
         :: gradient norm              0.000765739986 Eh/a0 ::
         :: HOMO-LUMO gap              0.554035456645 eV    ::
         ::.................................................::
         :: SCC energy               -30.314341888037 Eh    ::
         :: -> isotropic ES            0.122216358510 Eh    ::
         :: -> anisotropic ES          0.003364806581 Eh    ::
         :: -> anisotropic XC          0.017616663098 Eh    ::
         :: -> dispersion             -0.018637844876 Eh    ::
         :: repulsion energy           0.415046454927 Eh    ::
         :: add. restraining           0.000000000000 Eh    ::
         :: total charge              -1.000000000000 e     ::
         :::::::::::::::::::::::::::::::::::::::::::::::::::::

           -------------------------------------------------
          |                Property Printout                |
           -------------------------------------------------

    * Orbital Energies and Occupations

         #    Occupation            Energy/Eh            Energy/eV
      -------------------------------------------------------------
         1        2.0000           -0.5928286             -16.1317
       ...           ...                  ...                  ...
        16        2.0000           -0.3305468              -8.9946
        17        2.0000           -0.3213094              -8.7433
        18        2.0000           -0.3172146              -8.6318
        19        2.0000           -0.3043460              -8.2817
        20        2.0000           -0.2927935              -7.9673
        21        2.0000           -0.2744815              -7.4690
        22        2.0000           -0.2613587              -7.1119
        23        2.0000           -0.2481257              -6.7518
        24        2.0000           -0.2447492              -6.6600
        25        2.0000           -0.1889791              -5.1424
        26        2.0000           -0.1851060              -5.0370
        27        2.0000           -0.1578292              -4.2948
        28        2.0000           -0.1224037              -3.3308 (HOMO)
        29        0.0000           -0.1020433              -2.7767 (LUMO)
        30                         -0.0740244              -2.0143
        31                         -0.0427601              -1.1636
        32                          0.0133166               0.3624
        33                          0.0331930               0.9032
        34                          0.0878150               2.3896
        35                          0.1222585               3.3268
        36                          0.1540482               4.1919
        37                          0.1664325               4.5289
        38                          0.2127730               5.7898
        39                          0.2419929               6.5850
       ...                                ...                  ...
        56                          0.8688953              23.6438
      -------------------------------------------------------------
                  HL-Gap            0.0203604 Eh            0.5540 eV
             Fermi-level           -0.1122235 Eh           -3.0538 eV

     #   Z          covCN         q      C6AA      α(0)
     1   6 C        3.773    -0.092    22.288     6.727
     2   6 C        2.973     0.018    27.598     8.617
     3   6 C        3.120    -0.058    29.248     8.857
     4   6 C        3.128    -0.006    27.977     8.660
     5   6 C        3.104     0.036    27.054     8.523
     6   7 N        1.949    -0.359    30.165     8.144
     7   7 N        3.068    -0.030    21.820     6.938
     8   6 C        1.961    -0.307    40.551    10.284
     9   6 C        3.073    -0.084    30.016     8.983
    10   6 C        2.945    -0.028    28.688     8.785
    11  16 S        2.293    -0.200   149.564    20.583
    12   1 H        0.925     0.033     2.542     2.493
    13   1 H        0.924     0.027     2.628     2.535
    14   1 H        0.924     0.027     2.626     2.534
    15   1 H        0.926     0.015     2.812     2.622
    16   1 H        0.860     0.073     2.064     2.250
    17   1 H        0.925    -0.088     5.148     3.548
    18   1 H        0.927     0.020     2.732     2.585

 Mol. C6AA /au·bohr⁶  :       5965.892867
 Mol. C8AA /au·bohr⁸  :     164612.601894
 Mol. α(0) /au        :        123.669332


Wiberg/Mayer (AO) data.
largest (>0.10) Wiberg bond orders for each atom

 ---------------------------------------------------------------------------
     #   Z sym  total        # sym  WBO       # sym  WBO       # sym  WBO
 ---------------------------------------------------------------------------
     1   6 C    3.998 --     2 C    1.026    12 H    0.987    14 H    0.977
                            13 H    0.974
     2   6 C    3.940 --     3 C    1.649    11 S    1.120     1 C    1.026
                            10 C    0.111
     3   6 C    3.985 --     2 C    1.649     4 C    1.192    15 H    0.962
     4   6 C    3.977 --    10 C    1.545     3 C    1.192     5 C    1.094
     5   6 C    3.958 --     6 N    1.372     9 C    1.319     4 C    1.094
     6   7 N    2.910 --     5 C    1.372     7 N    1.157     8 C    0.187
                             9 C    0.120
     7   7 N    3.548 --     8 C    1.273     6 N    1.157    16 H    0.964
     8   6 C    2.933 --     9 C    1.434     7 N    1.273     6 N    0.187
     9   6 C    3.949 --     8 C    1.434     5 C    1.319    17 H    0.966
                             6 N    0.120
    10   6 C    3.912 --     4 C    1.545    11 S    1.118    18 H    0.971
                             2 C    0.111
    11  16 S    2.517 --     2 C    1.120    10 C    1.118
    12   1 H    0.999 --     1 C    0.987
    13   1 H    0.999 --     1 C    0.974
    14   1 H    0.999 --     1 C    0.977
    15   1 H    1.000 --     3 C    0.962
    16   1 H    0.994 --     7 N    0.964
    17   1 H    0.992 --     9 C    0.966
    18   1 H    0.999 --    10 C    0.971
 ---------------------------------------------------------------------------

Topologies differ in total number of bonds
Writing topology from bond orders to xtbtopo.mol

molecular dipole:
                 x           y           z       tot (Debye)
 q only:        3.087       0.152       0.781
   full:        3.376       0.145       0.889       8.880
molecular quadrupole (traceless):
                xx          xy          yy          xz          yz          zz
 q only:      -20.905      -7.122      11.871       2.226       3.047       9.034
  q+dip:      -26.963     -11.323      13.542       7.852       3.050      13.421
   full:      -27.739     -11.904      14.746       8.125       4.197      12.993

           -------------------------------------------------
          |                Geometry Summary                 |
           -------------------------------------------------

      molecular mass/u    :      163.2196663
   center of mass at/Å    :       -0.1344560       0.1685723      -0.3950998
  moments of inertia/u·Å² :        0.1759733E+03   0.9401540E+03   0.1112985E+04
rotational constants/cm⁻¹ :        0.9579656E-01   0.1793071E-01   0.1514633E-01

 * 17 selected distances

     #   Z          #   Z                                           value/Å
     2   6 C        3   6 C                                       1.3529091
     3   6 C        4   6 C                                       1.4296712
     4   6 C        5   6 C                                       1.4377889
     5   6 C        6   7 N                                       1.3440981
     6   7 N        7   7 N                                       1.3579526
     7   7 N        8   6 C                                       1.3674603
     5   6 C        9   6 C                                       1.4104936
     4   6 C       10   6 C                                       1.3645214
     2   6 C       11  16 S                                       1.7434348 (max)
    10   6 C       11  16 S                                       1.7349808
     1   6 C       12   1 H                                       1.0880876
     1   6 C       13   1 H                                       1.0923517
     1   6 C       14   1 H                                       1.0910365
     3   6 C       15   1 H                                       1.0770385
     7   7 N       16   1 H                                       1.0114730 (min)
     9   6 C       17   1 H                                       1.0838518
    10   6 C       18   1 H                                       1.0706223

 * 6 distinct bonds (by element types)

   Z      Z             #   av. dist./Å        max./Å        min./Å
   1 H    6 C           6     1.0838314     1.0923517     1.0706223
   6 C    6 C           5     1.3990768     1.4377889     1.3529091
   1 H    7 N           1     1.0114730     1.0114730     1.0114730
   6 C    7 N           2     1.3557792     1.3674603     1.3440981
   7 N    7 N           1     1.3579526     1.3579526     1.3579526
   6 C   16 S           2     1.7392078     1.7434348     1.7349808


optimized geometry written to: xtbopt.xyz


           -------------------------------------------------
          | TOTAL ENERGY              -29.899317796075 Eh   |
          | GRADIENT NORM               0.000765739986 Eh/α |
          | HOMO-LUMO GAP               0.554035456645 eV   |
           -------------------------------------------------

------------------------------------------------------------------------
 * finished run on 2022/11/02 at 18:13:39.367     
------------------------------------------------------------------------
 total:
 * wall-time:     0 d,  0 h,  0 min,  0.401 sec
 *  cpu-time:     0 d,  0 h,  0 min,  0.356 sec
 * ratio c/w:     0.888 speedup
 SCF:
 * wall-time:     0 d,  0 h,  0 min,  0.063 sec
 *  cpu-time:     0 d,  0 h,  0 min,  0.058 sec
 * ratio c/w:     0.921 speedup
 ANC optimizer:
 * wall-time:     0 d,  0 h,  0 min,  0.271 sec
 *  cpu-time:     0 d,  0 h,  0 min,  0.266 sec
 * ratio c/w:     0.980 speedup

