18
 energy: -29.899317796075 gnorm: 0.000765739986 xtb: 6.4.1 (afa7bdf)
C         3.25002711322216   -0.01985929904728    1.18808521508084
C         2.04634086483255    0.19636034821228    0.33149900262359
C         0.76108632456287   -0.14452656454951    0.58105865038712
C        -0.15358835689268    0.19931599771292   -0.46254191586759
C        -1.56719844464465   -0.06080115846551   -0.42672911341123
N        -2.36888412649164    0.29129474206790   -1.44649778636050
N        -3.58972033583796   -0.12393409623138   -1.02084616225538
C        -3.67455337671594   -0.72715716505370    0.20343853328535
C        -2.31888619766610   -0.68080293502563    0.59310198495448
C         0.49372436619640    0.80755166727737   -1.49837701379635
S         2.19936694305607    0.96819688437157   -1.22426968049963
H         4.11090330181055    0.49513674988069    0.76665220481101
H         3.48640353729056   -1.08376300816816    1.26202702504957
H         3.07505150977943    0.35611459689383    2.19723724219039
H         0.45325361999757   -0.63221656372764    1.49067908741961
H        -4.36781698662284    0.04215007718564   -1.64539345782387
H        -1.90964424166729   -1.05772242561275    1.52325648682143
H         0.07413448579091    1.17466315227936   -2.41238230260885
