      -----------------------------------------------------------      
     |                   =====================                   |     
     |                           x T B                           |     
     |                   =====================                   |     
     |                         S. Grimme                         |     
     |          Mulliken Center for Theoretical Chemistry        |     
     |                    University of Bonn                     |     
      -----------------------------------------------------------      

   * xtb version 6.4.1 (afa7bdf) compiled by 'ehlert@majestix' on 2021-06-10

   xtb is free software: you can redistribute it and/or modify it under
   the terms of the GNU Lesser General Public License as published by
   the Free Software Foundation, either version 3 of the License, or
   (at your option) any later version.
   
   xtb is distributed in the hope that it will be useful,
   but WITHOUT ANY WARRANTY; without even the implied warranty of
   MERCHANTABILITY or FITNESS FOR A PARTICULAR PURPOSE.  See the
   GNU Lesser General Public License for more details.
   
   Cite this work as:
   * C. Bannwarth, E. Caldeweyher, S. Ehlert, A. Hansen, P. Pracht,
     J. Seibert, S. Spicher, S. Grimme, WIREs Comput. Mol. Sci., 2020, 11,
     e01493. DOI: 10.1002/wcms.1493
   
   for GFN2-xTB:
   * C. Bannwarth, S. Ehlert and S. Grimme., J. Chem. Theory Comput., 2019,
     15, 1652-1671. DOI: 10.1021/acs.jctc.8b01176
   for GFN1-xTB:
   * S. Grimme, C. Bannwarth, P. Shushkov, J. Chem. Theory Comput., 2017,
     13, 1989-2009. DOI: 10.1021/acs.jctc.7b00118
   for GFN0-xTB:
   * P. Pracht, E. Caldeweyher, S. Ehlert, S. Grimme, ChemRxiv, 2019, preprint.
     DOI: 10.26434/chemrxiv.8326202.v1
   for GFN-FF:
   * S. Spicher and S. Grimme, Angew. Chem. Int. Ed., 2020, 59, 15665-15673.
     DOI: 10.1002/anie.202004239
   
   for DFT-D4:
   * E. Caldeweyher, C. Bannwarth and S. Grimme, J. Chem. Phys., 2017,
     147, 034112. DOI: 10.1063/1.4993215
   * E. Caldeweyher, S. Ehlert, A. Hansen, H. Neugebauer, S. Spicher,
     C. Bannwarth and S. Grimme, J. Chem. Phys., 2019, 150, 154122.
     DOI: 10.1063/1.5090222
   * E. Caldeweyher, J.-M. Mewes, S. Ehlert and S. Grimme, Phys. Chem. Chem. Phys.
     2020, 22, 8499-8512. DOI: 10.1039/D0CP00502A
   
   for sTDA-xTB:
   * S. Grimme and C. Bannwarth, J. Chem. Phys., 2016, 145, 054103.
     DOI: 10.1063/1.4959605
   
   in the mass-spec context:
   * V. Asgeirsson, C. Bauer and S. Grimme, Chem. Sci., 2017, 8, 4879.
     DOI: 10.1039/c7sc00601b
   * J. Koopman and S. Grimme, ACS Omega 2019, 4, 12, 15120-15133.
     DOI: 10.1021/acsomega.9b02011
   
   for metadynamics refer to:
   * S. Grimme, J. Chem. Theory Comput., 2019, 155, 2847-2862
     DOI: 10.1021/acs.jctc.9b00143
   
   for SPH calculations refer to:
   * S. Spicher and S. Grimme, J. Chem. Theory Comput., 2021, 17, 1701-1714
     DOI: 10.1021/acs.jctc.0c01306
   
   with help from (in alphabetical order)
   P. Atkinson, C. Bannwarth, F. Bohle, G. Brandenburg, E. Caldeweyher
   M. Checinski, S. Dohm, S. Ehlert, S. Ehrlich, I. Gerasimov, J. Koopman
   C. Lavigne, S. Lehtola, F. März, M. Müller, F. Musil, H. Neugebauer
   J. Pisarek, C. Plett, P. Pracht, J. Seibert, P. Shushkov, S. Spicher
   M. Stahn, M. Steiner, T. Strunk, J. Stückrath, T. Rose, and J. Unsleber
   
 * started run on 2022/11/02 at 18:13:37.273     

           -------------------------------------------------
          |                Calculation Setup                |
           -------------------------------------------------

          program call               : /lustre/hpc/kemi/borup/pKalculator/dep/xtb-6.4.1/bin/xtb --gfn 2 /lustre/hpc/kemi/borup/pKalculator/calc/test#-1=1/conf03/test#-1=1_conf03_gfn2.xyz --opt --lmo --chrg -1 --uhf 0
          hostname                   : fend01.cluster
          coordinate file            : /lustre/hpc/kemi/borup/pKalculator/calc/test#-1=1/conf03/test#-1=1_conf03_gfn2.xyz
          omp threads                :                     1
          number of atoms            :                    18
          number of electrons        :                    56
          charge                     :                    -1
          spin                       :                   0.0
          first test random number   :      0.33192507466936

   ID    Z sym.   atoms
    1    6 C      1-5, 8-10
    2    7 N      6, 7
    3   16 S      11
    4    1 H      12-18

           -------------------------------------------------
          |                 G F N 2 - x T B                 |
           -------------------------------------------------

        Reference                      10.1021/acs.jctc.8b01176
      * Hamiltonian:
        H0-scaling (s, p, d)           1.850000    2.230000    2.230000
        zeta-weighting                 0.500000
      * Dispersion:
        s8                             2.700000
        a1                             0.520000
        a2                             5.000000
        s9                             5.000000
      * Repulsion:
        kExp                           1.500000    1.000000
        rExp                           1.000000
      * Coulomb:
        alpha                          2.000000
        third order                    shell-resolved
        anisotropic                    true
        a3                             3.000000
        a5                             4.000000
        cn-shift                       1.200000
        cn-exp                         4.000000
        max-rad                        5.000000


          ...................................................
          :                      SETUP                      :
          :.................................................:
          :  # basis functions                  57          :
          :  # atomic orbitals                  56          :
          :  # shells                           30          :
          :  # electrons                        56          :
          :  max. iterations                   250          :
          :  Hamiltonian                  GFN2-xTB          :
          :  restarted?                      false          :
          :  GBSA solvation                  false          :
          :  PC potential                    false          :
          :  electronic temp.          300.0000000     K    :
          :  accuracy                    1.0000000          :
          :  -> integral cutoff          0.2500000E+02      :
          :  -> integral neglect         0.1000000E-07      :
          :  -> SCF convergence          0.1000000E-05 Eh   :
          :  -> wf. convergence          0.1000000E-03 e    :
          :  Broyden damping             0.4000000          :
          ...................................................

 iter      E             dE          RMSdq      gap      omega  full diag
   1    -30.0757668 -0.300758E+02  0.431E+00    2.85       0.0  T
   2    -29.0411808  0.103459E+01  0.681E+00    0.85       1.0  T
   3    -30.2274652 -0.118628E+01  0.266E+00    2.29       1.0  T
   4    -30.2569794 -0.295142E-01  0.162E+00    1.27       1.0  T
   5    -30.2712835 -0.143041E-01  0.107E+00    0.76       1.0  T
   6    -30.2783840 -0.710054E-02  0.658E-01    0.37       1.0  T
   7    -30.2845212 -0.613719E-02  0.236E-01    0.16       1.0  T
   8    -30.2847341 -0.212873E-03  0.140E-01    0.16       1.0  T
   9    -30.2828767  0.185743E-02  0.288E-01    0.11       1.0  T
  10    -30.2838352 -0.958528E-03  0.228E-01    0.18       1.0  T
  11    -30.2849583 -0.112311E-02  0.906E-02    0.16       1.0  T
  12    -30.2851072 -0.148859E-03  0.524E-02    0.13       1.0  T
  13    -30.2851801 -0.729336E-04  0.659E-03    0.14       3.6  T
  14    -30.2851799  0.218285E-06  0.721E-03    0.14       3.3  T
  15    -30.2851812 -0.134152E-05  0.697E-04    0.14      33.8  T
  16    -30.2851811  0.896337E-07  0.193E-03    0.14      12.2  T
  17    -30.2851812 -0.100481E-06  0.670E-05    0.14     352.0  T
  18    -30.2851812  0.251887E-11  0.508E-05    0.14     463.9  T

   *** convergence criteria satisfied after 18 iterations ***

         #    Occupation            Energy/Eh            Energy/eV
      -------------------------------------------------------------
         1        2.0000           -0.5762478             -15.6805
       ...           ...                  ...                  ...
        22        2.0000           -0.2452384              -6.6733
        23        2.0000           -0.2369636              -6.4481
        24        2.0000           -0.2311268              -6.2893
        25        2.0000           -0.1932594              -5.2589
        26        2.0000           -0.1834225              -4.9912
        27        2.0000           -0.1676793              -4.5628
        28        1.8792           -0.0906345              -2.4663 (HOMO)
        29        0.1208           -0.0854190              -2.3244 (LUMO)
        30                         -0.0589718              -1.6047
        31                         -0.0352256              -0.9585
        32                          0.0211846               0.5765
        33                          0.0243386               0.6623
       ...                                ...                  ...
        56                          0.8922981              24.2807
      -------------------------------------------------------------
                  HL-Gap            0.0052155 Eh            0.1419 eV
             Fermi-level           -0.0880267 Eh           -2.3953 eV
 
 localization/xTB-IFF output generation
 averaging CT terms over            1  occ. levels
 averaging CT terms over            1  virt. levels
 dipole moment from electron density (au)
     X       Y       Z   
  -2.2276   1.0404  -0.5713  total (Debye):    6.416
cpu  time for init local    0.00 s
wall time for init local    0.00 s
 doing rotations ...
 initialization of trafo matrix to unity

 converged in     39 iterations, threshold :   0.99217002D-06
 doing transformations ...
 lmo centers(Z=2) and atoms on file <lmocent.coord>
 LMO Fii/eV  ncent    charge center   contributions...
    1 sigma -11.22   1.97  -5.50904  -0.32672  -0.04720    1C :  0.52    2C :  0.48
    2 sigma -10.97   1.94  -3.93009  -2.19021   1.11730   11S :  0.59    2C :  0.41
    3 sigma -10.93   1.99  -6.96278   0.10253  -1.69307    1C :  0.51   12H :  0.50
    4 sigma -10.91   1.99  -6.91836   1.41117   0.08943    1C :  0.51   13H :  0.50
    5 sigma -10.91   1.99   6.34854   3.32348  -2.28320    7N :  0.53   16H :  0.47
    6 sigma -10.88   1.97  -7.69758  -0.65323   0.25329    1C :  0.51   14H :  0.50
    7 sigma -10.75   1.90  -1.91624  -3.34724   1.85480   11S :  0.61   10C :  0.39
    8 sigma -10.24   1.86   6.37729   1.65157  -1.12187    7N :  0.62    8C :  0.39
    9 sigma -10.08   2.00  -0.86412  -0.13758  -0.09636    3C :  0.52    4C :  0.48
   10 LP    -10.04   1.15  -4.06890  -2.82341   4.38384   11S :  0.93
   11 LP    -10.02   1.15  -3.99648  -5.37810   0.17804   11S :  0.93
   12 sigma  -9.77   2.01   0.66256  -3.81685   2.17659   10C :  0.50   18H :  0.49
   13 pi     -9.76   1.87   4.90539   2.52206  -1.26973    7N :  0.66    6N :  0.31
   14 sigma  -9.75   2.02  -2.01548   1.57973  -1.16993   15H :  0.50    3C :  0.50
   15 pi     -9.67   1.86   4.95232   2.03728  -1.95586    7N :  0.67    6N :  0.30
   16 pi     -9.31   2.10  -3.04771  -0.48343  -0.53103    2C :  0.50    3C :  0.48
   17 pi     -9.30   2.11  -3.06027   0.06514   0.36249    2C :  0.50    3C :  0.48
   18 sigma  -9.20   2.02   1.45716  -0.37357   0.07902    4C :  0.54    5C :  0.45
   19 sigma  -8.92   1.99   8.36699   0.34001  -0.13671   17H :  0.54    8C :  0.46
   20 pi     -8.76   2.18  -0.07227  -2.14645   0.54107   10C :  0.50    4C :  0.45
   21 pi     -8.76   2.17  -0.08549  -1.60953   1.42112   10C :  0.50    4C :  0.45
   22 delpi  -7.90   2.23   3.03245   1.39137  -0.53186    6N :  0.50    5C :  0.45
   23 delpi  -7.84   2.26   3.05696   0.85951  -1.25468    6N :  0.49    5C :  0.45
   24 sigma  -7.83   2.00   3.86553  -0.40592   0.20325    5C :  0.56    9C :  0.44
   25 pi     -6.87   2.20   6.01045  -0.31709  -0.38214    8C :  0.56    9C :  0.38
   26 delpi  -6.87   2.20   5.97462   0.24159   0.43307    8C :  0.55    9C :  0.38
   27 LP     -6.42   1.02   2.19079   3.41356  -2.51418    6N :  0.99
   28 LP     -3.63   1.06   5.30093  -2.51695   1.71327    9C :  0.97
 starting deloc pi regularization ...
 thr    2.20000000000000      # pi deloc LMO           5
 files:
 coordprot.0/xtbscreen.xyz/xtblmoinfo/lmocent.coord
 with protonation site input, xtbdock and
 LMO center info written
 

 SCC (total)                   0 d,  0 h,  0 min,  0.053 sec
 SCC setup                      ...        0 min,  0.000 sec (  0.589%)
 Dispersion                     ...        0 min,  0.000 sec (  0.443%)
 classical contributions        ...        0 min,  0.000 sec (  0.122%)
 integral evaluation            ...        0 min,  0.005 sec (  8.748%)
 iterations                     ...        0 min,  0.021 sec ( 39.154%)
 molecular gradient             ...        0 min,  0.010 sec ( 18.005%)
 printout                       ...        0 min,  0.018 sec ( 32.838%)

         :::::::::::::::::::::::::::::::::::::::::::::::::::::
         ::                     SUMMARY                     ::
         :::::::::::::::::::::::::::::::::::::::::::::::::::::
         :: total energy             -29.863403115258 Eh    ::
         :: gradient norm              0.107811648062 Eh/a0 ::
         :: HOMO-LUMO gap              0.141920238652 eV    ::
         ::.................................................::
         :: SCC energy               -30.285181243778 Eh    ::
         :: -> isotropic ES            0.121870929147 Eh    ::
         :: -> anisotropic ES          0.007199591913 Eh    ::
         :: -> anisotropic XC          0.018012383604 Eh    ::
         :: -> dispersion             -0.018303167757 Eh    ::
         :: repulsion energy           0.421824647487 Eh    ::
         :: add. restraining           0.000000000000 Eh    ::
         :: total charge              -1.000000000000 e     ::
         :::::::::::::::::::::::::::::::::::::::::::::::::::::

      ----------------------------------------------------------- 
     |                   =====================                   |
     |                        A N C O P T                        |
     |                   =====================                   |
     |               Approximate Normal Coordinate               |
     |                Rational Function Optimizer                |
      ----------------------------------------------------------- 

          ...................................................
          :                      SETUP                      :
          :.................................................:
          :   optimization level            normal          :
          :   max. optcycles                   200          :
          :   ANC micro-cycles                  20          :
          :   degrees of freedom                48          :
          :.................................................:
          :   RF solver                   davidson          :
          :   write xtbopt.log                true          :
          :   linear?                        false          :
          :   energy convergence         0.5000000E-05 Eh   :
          :   grad. convergence          0.1000000E-02 Eh/α :
          :   maximium RF displ.         1.0000000          :
          :   Hlow (freq-cutoff)         0.1000000E-01      :
          :   Hmax (freq-cutoff)         5.0000000          :
          :   S6 in model hess.         20.0000000          :
          ...................................................

generating ANC from model Hessian ...
Using Lindh-Hessian (1995)
 Shifting diagonal of input Hessian by   8.071109111317930E-003
 Lowest  eigenvalues of input Hessian
    0.000000    0.000000    0.000000    0.000000    0.000000    0.000000
    0.010000    0.012007    0.012620    0.015686    0.019094    0.023863
    0.030572    0.042332    0.043917    0.050181    0.054869    0.060950
 Highest eigenvalues
    1.671749    1.734487    1.846764    1.901445    1.971340    2.033895
 

........................................................................
.............................. CYCLE    1 ..............................
........................................................................
   1    -30.2851812 -0.302852E+02  0.593E-05    0.14       0.0  T
   2    -30.2851812  0.129990E-07  0.677E-04    0.14      34.8  T
   3    -30.2851812 -0.130868E-07  0.157E-05    0.14    1496.6  T
     SCC iter.                  ...        0 min,  0.004 sec
     gradient                   ...        0 min,  0.010 sec
 * total energy  :   -29.8634031 Eh     change       -0.4646949E-10 Eh
   gradient norm :     0.1078106 Eh/α   predicted     0.0000000E+00 (-100.00%)
   displ. norm   :     0.2418186 α      lambda       -0.1604960E-01
   maximum displ.:     0.0890584 α      in ANC's #7, #27, #9, ...

........................................................................
.............................. CYCLE    2 ..............................
........................................................................
   1    -30.2853107 -0.302853E+02  0.504E-01    0.47       0.0  T
   2    -29.5217256  0.763585E+00  0.503E+00    0.10       1.0  T
   3    -30.2857167 -0.763991E+00  0.363E-01    0.41       1.0  T
   4    -30.2860733 -0.356553E-03  0.255E-01    0.37       1.0  T
   5    -30.2862350 -0.161724E-03  0.242E-01    0.35       1.0  T
   6    -30.2863175 -0.824906E-04  0.228E-01    0.34       1.0  T
   7    -30.2864855 -0.168046E-03  0.210E-01    0.32       1.0  T
   8    -30.2866515 -0.166011E-03  0.191E-01    0.30       1.0  T
   9    -30.2867392 -0.876427E-04  0.180E-01    0.29       1.0  T
  10    -30.2869541 -0.214927E-03  0.151E-01    0.26       1.0  T
  11    -30.2874046 -0.450523E-03  0.656E-02    0.22       1.0  T
  12    -30.2875136 -0.109014E-03  0.241E-03    0.19       9.8  T
  13    -30.2875117  0.193742E-05  0.887E-03    0.20       2.7  T
  14    -30.2875132 -0.152011E-05  0.430E-03    0.19       5.5  T
  15    -30.2875137 -0.476027E-06  0.595E-04    0.19      39.6  T
  16    -30.2875137 -0.599823E-08  0.350E-04    0.19      67.4  T
     SCC iter.                  ...        0 min,  0.018 sec
     gradient                   ...        0 min,  0.010 sec
 * total energy  :   -29.8747625 Eh     change       -0.1135935E-01 Eh
   gradient norm :     0.0464975 Eh/α   predicted    -0.8494067E-02 ( -25.22%)
   displ. norm   :     0.2354370 α      lambda       -0.5836317E-02
   maximum displ.:     0.1211406 α      in ANC's #7, #13, #9, ...

........................................................................
.............................. CYCLE    3 ..............................
........................................................................
   1    -30.2883108 -0.302883E+02  0.335E-01    0.46       0.0  T
   2    -30.2884667 -0.155882E-03  0.220E-01    0.27       1.0  T
   3    -30.2883746  0.921388E-04  0.117E-01    0.42       1.0  T
   4    -30.2885904 -0.215857E-03  0.316E-02    0.33       1.0  T
   5    -30.2885943 -0.392686E-05  0.182E-02    0.32       1.3  T
   6    -30.2885947 -0.334129E-06  0.112E-02    0.32       2.1  T
   7    -30.2885957 -0.100013E-05  0.421E-03    0.32       5.6  T
   8    -30.2885958 -0.136865E-06  0.144E-03    0.33      16.4  T
   9    -30.2885958 -0.204069E-08  0.919E-04    0.33      25.6  T
  10    -30.2885958 -0.970288E-08  0.192E-04    0.33     122.6  T
     SCC iter.                  ...        0 min,  0.012 sec
     gradient                   ...        0 min,  0.010 sec
 * total energy  :   -29.8780180 Eh     change       -0.3255513E-02 Eh
   gradient norm :     0.0107919 Eh/α   predicted    -0.3079916E-02 (  -5.39%)
   displ. norm   :     0.0830037 α      lambda       -0.2972617E-03
   maximum displ.:     0.0702443 α      in ANC's #7, #3, #13, ...

........................................................................
.............................. CYCLE    4 ..............................
........................................................................
   1    -30.2888833 -0.302889E+02  0.569E-02    0.35       0.0  T
   2    -30.2888855 -0.222718E-05  0.362E-02    0.35       1.0  T
   3    -30.2888839  0.165052E-05  0.230E-02    0.35       1.0  T
   4    -30.2888900 -0.610079E-05  0.540E-03    0.35       4.4  T
   5    -30.2888902 -0.240518E-06  0.315E-03    0.35       7.5  T
   6    -30.2888903 -0.680876E-07  0.117E-03    0.35      20.1  T
   7    -30.2888903 -0.109427E-08  0.629E-04    0.35      37.4  T
   8    -30.2888903 -0.271650E-08  0.304E-04    0.35      77.5  T
     SCC iter.                  ...        0 min,  0.009 sec
     gradient                   ...        0 min,  0.010 sec
 * total energy  :   -29.8782257 Eh     change       -0.2077385E-03 Eh
   gradient norm :     0.0058596 Eh/α   predicted    -0.1496533E-03 ( -27.96%)
   displ. norm   :     0.0879271 α      lambda       -0.1502270E-03
   maximum displ.:     0.0716043 α      in ANC's #7, #3, #2, ...

........................................................................
.............................. CYCLE    5 ..............................
........................................................................
   1    -30.2894974 -0.302895E+02  0.482E-02    0.35       0.0  T
   2    -30.2894986 -0.121879E-05  0.284E-02    0.34       1.0  T
   3    -30.2894967  0.192316E-05  0.197E-02    0.35       1.2  T
   4    -30.2895011 -0.440645E-05  0.439E-03    0.35       5.4  T
   5    -30.2895013 -0.182650E-06  0.189E-03    0.34      12.4  T
   6    -30.2895013 -0.225925E-07  0.580E-04    0.34      40.6  T
   7    -30.2895013 -0.277916E-08  0.254E-04    0.34      92.9  T
     SCC iter.                  ...        0 min,  0.008 sec
     gradient                   ...        0 min,  0.010 sec
 * total energy  :   -29.8783172 Eh     change       -0.9144159E-04 Eh
   gradient norm :     0.0030331 Eh/α   predicted    -0.7569467E-04 ( -17.22%)
   displ. norm   :     0.0498374 α      lambda       -0.3039503E-04
   maximum displ.:     0.0371955 α      in ANC's #3, #7, #2, ...

........................................................................
.............................. CYCLE    6 ..............................
........................................................................
   1    -30.2898722 -0.302899E+02  0.252E-02    0.34       0.0  T
   2    -30.2898725 -0.229851E-06  0.142E-02    0.34       1.7  T
   3    -30.2898715  0.979363E-06  0.103E-02    0.34       2.3  T
   4    -30.2898729 -0.140825E-05  0.192E-03    0.34      12.3  T
   5    -30.2898729 -0.272777E-07  0.863E-04    0.34      27.3  T
   6    -30.2898729 -0.611792E-08  0.412E-04    0.34      57.1  T
     SCC iter.                  ...        0 min,  0.007 sec
     gradient                   ...        0 min,  0.010 sec
 * total energy  :   -29.8783395 Eh     change       -0.2235148E-04 Eh
   gradient norm :     0.0021308 Eh/α   predicted    -0.1523606E-04 ( -31.83%)
   displ. norm   :     0.0630280 α      lambda       -0.2407820E-04
   maximum displ.:     0.0519812 α      in ANC's #3, #2, #7, ...

........................................................................
.............................. CYCLE    7 ..............................
........................................................................
   1    -30.2901288 -0.302901E+02  0.320E-02    0.34       0.0  T
   2    -30.2901293 -0.498956E-06  0.192E-02    0.34       1.2  T
   3    -30.2901282  0.104532E-05  0.135E-02    0.34       1.7  T
   4    -30.2901304 -0.220975E-05  0.228E-03    0.34      10.3  T
   5    -30.2901305 -0.455266E-07  0.110E-03    0.34      21.5  T
   6    -30.2901305 -0.120715E-07  0.484E-04    0.34      48.7  T
   7    -30.2901305 -0.991790E-09  0.215E-04    0.34     109.8  T
     SCC iter.                  ...        0 min,  0.008 sec
     gradient                   ...        0 min,  0.010 sec
 * total energy  :   -29.8783561 Eh     change       -0.1663516E-04 Eh
   gradient norm :     0.0011939 Eh/α   predicted    -0.1208490E-04 ( -27.35%)
   displ. norm   :     0.0588916 α      lambda       -0.9565920E-05
   maximum displ.:     0.0464835 α      in ANC's #3, #2, #1, ...

........................................................................
.............................. CYCLE    8 ..............................
........................................................................
   1    -30.2901730 -0.302902E+02  0.326E-02    0.34       0.0  T
   2    -30.2901734 -0.408356E-06  0.199E-02    0.34       1.2  T
   3    -30.2901721  0.130876E-05  0.137E-02    0.34       1.7  T
   4    -30.2901744 -0.238634E-05  0.195E-03    0.34      12.1  T
   5    -30.2901745 -0.404952E-07  0.957E-04    0.34      24.6  T
   6    -30.2901745 -0.894388E-08  0.366E-04    0.34      64.4  T
     SCC iter.                  ...        0 min,  0.007 sec
     gradient                   ...        0 min,  0.010 sec
 * total energy  :   -29.8783660 Eh     change       -0.9810783E-05 Eh
   gradient norm :     0.0011640 Eh/α   predicted    -0.4791664E-05 ( -51.16%)
   displ. norm   :     0.0449391 α      lambda       -0.5471069E-05
   maximum displ.:     0.0300509 α      in ANC's #3, #2, #1, ...

........................................................................
.............................. CYCLE    9 ..............................
........................................................................
   1    -30.2900967 -0.302901E+02  0.265E-02    0.34       0.0  T
   2    -30.2900968 -0.958504E-07  0.158E-02    0.34       1.5  T
   3    -30.2900954  0.148121E-05  0.107E-02    0.34       2.2  T
   4    -30.2900971 -0.177874E-05  0.113E-03    0.34      20.9  T
   5    -30.2900971 -0.121172E-07  0.638E-04    0.34      36.9  T
   6    -30.2900972 -0.276706E-08  0.220E-04    0.34     107.0  T
     SCC iter.                  ...        0 min,  0.007 sec
     gradient                   ...        0 min,  0.010 sec
 * total energy  :   -29.8783723 Eh     change       -0.6310008E-05 Eh
   gradient norm :     0.0009309 Eh/α   predicted    -0.2738266E-05 ( -56.60%)
   displ. norm   :     0.0570902 α      lambda       -0.4709425E-05
   maximum displ.:     0.0373808 α      in ANC's #2, #3, #1, ...

........................................................................
.............................. CYCLE   10 ..............................
........................................................................
   1    -30.2900786 -0.302901E+02  0.338E-02    0.34       0.0  T
   2    -30.2900787 -0.123907E-06  0.199E-02    0.34       1.2  T
   3    -30.2900766  0.212480E-05  0.121E-02    0.34       1.9  T
   4    -30.2900790 -0.243075E-05  0.120E-03    0.34      19.6  T
   5    -30.2900790 -0.123894E-07  0.704E-04    0.34      33.5  T
   6    -30.2900790 -0.329378E-08  0.223E-04    0.34     105.7  T
     SCC iter.                  ...        0 min,  0.007 sec
     gradient                   ...        0 min,  0.010 sec
 * total energy  :   -29.8783771 Eh     change       -0.4872347E-05 Eh
   gradient norm :     0.0005141 Eh/α   predicted    -0.2359155E-05 ( -51.58%)
   displ. norm   :     0.0386226 α      lambda       -0.2195168E-05
   maximum displ.:     0.0272866 α      in ANC's #2, #5, #1, ...

   *** GEOMETRY OPTIMIZATION CONVERGED AFTER 10 ITERATIONS ***

------------------------------------------------------------------------
 total energy gain   :        -0.0149740 Eh       -9.3963 kcal/mol
 total RMSD          :         0.1653363 a0        0.0875 Å
 total power (kW/mol):        -3.9314292 (step) -163.5274 (real)
------------------------------------------------------------------------

 ANCopt (total)                0 d,  0 h,  0 min,  0.240 sec
 optimizer setup                ...        0 min,  0.000 sec (  0.199%)
 model hessian                  ...        0 min,  0.003 sec (  1.052%)
 ANC generation                 ...        0 min,  0.001 sec (  0.290%)
 coordinate transformation      ...        0 min,  0.000 sec (  0.061%)
 single point calculation       ...        0 min,  0.231 sec ( 96.231%)
 optimization log               ...        0 min,  0.002 sec (  0.876%)
 hessian update                 ...        0 min,  0.000 sec (  0.061%)
 rational function              ...        0 min,  0.002 sec (  0.898%)

================
 final structure:
================
18
 xtb: 6.4.1 (afa7bdf)
C        -3.56542479085136    0.07661160170423   -0.19543207766312
C        -2.16343587140817   -0.34989502921426    0.09566675333597
C        -1.00546790123523    0.24875379189175   -0.26216005951897
C         0.17420933414568   -0.43228651061460    0.17728993640478
C         1.51349668906385    0.01680926236330   -0.08167668799778
N         1.69148867463641    1.14440571408526   -0.80793455085172
N         3.02083145309931    1.27380494381595   -0.85824126474826
C         3.64941809506366    0.24792277732299   -0.17580182041746
C         2.72822289348447   -0.62963960348722    0.36982961431670
C        -0.14353058736015   -1.56210741620301    0.87526234858409
S        -1.85542319663722   -1.80754779025616    1.00534262202843
H        -3.77417335453626    0.01653902566438   -1.26597817662135
H        -3.72569055025784    1.10907715183196    0.12006746059282
H        -4.27235316825642   -0.56285163822462    0.32964021064539
H        -0.95235143154021    1.16284896362274   -0.82848397498221
H         3.42172222391050    2.06042198973348   -1.35596044948727
H         4.73523309797887    0.25563864814739   -0.15181316044763
H         0.52322839069971   -2.26850488218326    1.32474227682706
 
 Bond Distances (Angstroems)
 ---------------------------
C1-C2=1.4941         C1-H12=1.0924        C1-H13=1.0914        C1-H14=1.0883        C2-C1=1.4941         C2-C3=1.3518         
C2-S11=1.7456        C3-C2=1.3518         C3-C4=1.4313         C3-H15=1.0766        C4-C3=1.4313         C4-C5=1.4361         
C4-C10=1.3655        C5-C4=1.4361         C5-N6=1.3530         C5-C9=1.4482         N6-C5=1.3530         N6-N7=1.3366         
N7-N6=1.3366         N7-C8=1.3832         N7-H16=1.0135        C8-N7=1.3832         C8-C9=1.3844         C8-H17=1.0861        
C9-C5=1.4482         C9-C8=1.3844         C10-C4=1.3655        C10-S11=1.7343       C10-H18=1.0703       S11-C2=1.7456        
S11-C10=1.7343       H12-C1=1.0924        H13-C1=1.0914        H14-C1=1.0883        H15-C3=1.0766        H16-N7=1.0135        
H17-C8=1.0861        H18-C10=1.0703       
 C  H  Rav=1.0842 sigma=0.0081  Rmin=1.0703  Rmax=1.0924     6
 C  C  Rav=1.4159 sigma=0.0470  Rmin=1.3518  Rmax=1.4941     7
 N  H  Rav=1.0135 sigma=0.0000  Rmin=1.0135  Rmax=1.0135     1
 N  C  Rav=1.3681 sigma=0.0151  Rmin=1.3530  Rmax=1.3832     2
 N  N  Rav=1.3366 sigma=0.0000  Rmin=1.3366  Rmax=1.3366     1
 S  C  Rav=1.7399 sigma=0.0057  Rmin=1.7343  Rmax=1.7456     2
 
 selected bond angles (degree)
 --------------------
H12-C1-C2=110.77               H13-C1-C2=110.58               H13-C1-H12=107.89              H14-C1-C2=110.35               
H14-C1-H12=108.45              H14-C1-H13=108.72              C3-C2-C1=128.74                S11-C2-C1=120.36               
S11-C2-C3=110.89               C4-C3-C2=114.46                H15-C3-C2=123.88               H15-C3-C4=121.66               
C5-C4-C3=124.37                C10-C4-C3=111.03               C10-C4-C5=124.60               N6-C5-C4=118.69                
C9-C5-C4=125.90                C9-C5-N6=115.41                N7-N6-C5=103.40                C8-N7-N6=111.20                
H16-N7-N6=119.15               H16-N7-C8=129.66               C9-C8-N7=111.24                H17-C8-N7=117.38               
H17-C8-C9=131.38               C8-C9-C5= 98.76                S11-C10-C4=112.65              H18-C10-C4=128.01              
H18-C10-S11=119.34             
 
 selected dihedral angles (degree)
 ---------------------------------
C3-C2-C1-H12= 66.29           C3-C2-C1-H13=306.72           C3-C2-C1-H14=186.39           S11-C2-C1-H12=246.69          
S11-C2-C1-H13=127.12          S11-C2-C1-H14=  6.79          C4-C3-C2-C1=180.30            C4-C3-C2-S11=359.94           
H15-C3-C2-C1=  0.43           H15-C3-C2-S11=180.06          C5-C4-C3-C2=180.14            C5-C4-C3-H15=  0.00           
C10-C4-C3-C2=  0.06           C10-C4-C3-H15=179.94          N6-C5-C4-C3=358.78            N6-C5-C4-C10=178.87           
C9-C5-C4-C3=178.63            C9-C5-C4-C10=358.72           N7-N6-C5-C4=179.93            N7-N6-C5-C9=  0.07            
C8-N7-N6-C5=359.94            H16-N7-N6-C5=180.11           C9-C8-N7-N6=  0.04            C9-C8-N7-H16=179.85           
H17-C8-N7-N6=180.07           H17-C8-N7-H16=359.88          C8-C9-C5-C4=180.10            C8-C9-C5-N6=359.95            
C5-C9-C8-N7=  0.00            C5-C9-C8-H17=179.97           S11-C10-C4-C3=359.97          S11-C10-C4-C5=179.89          
H18-C10-C4-C3=180.07          H18-C10-C4-C5=  0.00          
           -------------------------------------------------
          |                Final Singlepoint                |
           -------------------------------------------------

          ...................................................
          :                      SETUP                      :
          :.................................................:
          :  # basis functions                  57          :
          :  # atomic orbitals                  56          :
          :  # shells                           30          :
          :  # electrons                        56          :
          :  max. iterations                   250          :
          :  Hamiltonian                  GFN2-xTB          :
          :  restarted?                      false          :
          :  GBSA solvation                  false          :
          :  PC potential                    false          :
          :  electronic temp.          300.0000000     K    :
          :  accuracy                    1.0000000          :
          :  -> integral cutoff          0.2500000E+02      :
          :  -> integral neglect         0.1000000E-07      :
          :  -> SCF convergence          0.1000000E-05 Eh   :
          :  -> wf. convergence          0.1000000E-03 e    :
          :  Broyden damping             0.4000000          :
          ...................................................

 iter      E             dE          RMSdq      gap      omega  full diag
   1    -30.2900790 -0.302901E+02  0.111E-04    0.34       0.0  T
   2    -30.2900790 -0.292424E-10  0.780E-05    0.34     302.1  T
   3    -30.2900790 -0.736655E-10  0.451E-05    0.34     523.0  T

   *** convergence criteria satisfied after 3 iterations ***

         #    Occupation            Energy/Eh            Energy/eV
      -------------------------------------------------------------
         1        2.0000           -0.5820638             -15.8388
       ...           ...                  ...                  ...
        22        2.0000           -0.2511024              -6.8328
        23        2.0000           -0.2371459              -6.4531
        24        2.0000           -0.2251942              -6.1278
        25        2.0000           -0.1925484              -5.2395
        26        2.0000           -0.1806416              -4.9155
        27        2.0000           -0.1565185              -4.2591
        28        1.9974           -0.1023292              -2.7845 (HOMO)
        29        0.0026           -0.0897015              -2.4409 (LUMO)
        30                         -0.0639275              -1.7396
        31                         -0.0375733              -1.0224
        32                          0.0236986               0.6449
        33                          0.0270865               0.7371
       ...                                ...                  ...
        56                          0.8673778              23.6026
      -------------------------------------------------------------
                  HL-Gap            0.0126277 Eh            0.3436 eV
             Fermi-level           -0.0960154 Eh           -2.6127 eV
 
 localization/xTB-IFF output generation
 averaging CT terms over            1  occ. levels
 averaging CT terms over            1  virt. levels
 dipole moment from electron density (au)
     X       Y       Z   
  -2.4397   1.3553  -0.7301  total (Debye):    7.333
cpu  time for init local    0.00 s
wall time for init local    0.01 s
 doing rotations ...
 initialization of trafo matrix to unity
iteration     50  convergence  0.11301124D-02
iteration    100  convergence  0.57968728D-05

 converged in    108 iterations, threshold :   0.99436431D-06
 doing transformations ...
 lmo centers(Z=2) and atoms on file <lmocent.coord>
 LMO Fii/eV  ncent    charge center   contributions...
    1 sigma -11.34   1.97  -5.43932  -0.25848  -0.09380    1C :  0.52    2C :  0.49
    2 sigma -11.14   1.93  -3.89702  -2.08896   1.06974   11S :  0.59    2C :  0.41
    3 sigma -11.04   1.99  -6.96538   0.06137  -1.70011    1C :  0.51   12H :  0.50
    4 sigma -11.04   1.99  -6.91014   1.42649   0.03090    1C :  0.51   13H :  0.50
    5 sigma -11.00   1.97  -7.61098  -0.65519   0.28787    1C :  0.51   14H :  0.49
    6 sigma -10.95   1.99   6.20565   3.34087  -2.21098    7N :  0.53   16H :  0.47
    7 sigma -10.86   1.89  -1.96233  -3.28358   1.83753   11S :  0.61   10C :  0.39
    8 sigma -10.33   1.86   6.29571   1.63539  -1.09828    7N :  0.63    8C :  0.38
    9 sigma -10.25   2.00  -0.77493  -0.12112  -0.11285    3C :  0.52    4C :  0.48
   10 LP    -10.17   1.15  -4.12898  -2.66686   4.32435   11S :  0.93
   11 LP    -10.17   1.15  -4.07395  -5.26473   0.14709   11S :  0.93
   12 sigma  -9.89   2.02  -1.85190   1.60405  -1.19780    3C :  0.50   15H :  0.49
   13 sigma  -9.85   2.01   0.54673  -3.84666   2.22250   10C :  0.50   18H :  0.49
   14 pi     -9.81   1.89   4.81954   2.47739  -1.20304    7N :  0.65    6N :  0.32
   15 pi     -9.55   2.10  -2.96923   0.14002   0.31864    2C :  0.50    3C :  0.48
   16 pi     -9.54   2.10  -2.95641  -0.41704  -0.57893    2C :  0.50    3C :  0.48
   17 pi     -9.54   1.86   4.89425   2.01572  -1.88326    7N :  0.67    6N :  0.30
   18 sigma  -9.35   2.01   1.50877  -0.43758   0.11651    4C :  0.55    5C :  0.44
   19 pi     -8.83   2.18  -0.05394  -2.14833   0.55099   10C :  0.51    4C :  0.44
   20 pi     -8.83   2.18  -0.06753  -1.60419   1.42497   10C :  0.51    4C :  0.44
   21 sigma  -8.76   1.98   8.33364   0.47520  -0.29830   17H :  0.55    8C :  0.45
   22 delpi  -7.78   2.26   2.98998   1.27667  -0.43149    6N :  0.49    5C :  0.45
   23 delpi  -7.76   2.27   3.00884   0.78461  -1.16723    6N :  0.49    5C :  0.45
   24 sigma  -7.53   2.00   3.90076  -0.58230   0.27425    5C :  0.56    9C :  0.43
   25 delpi  -6.57   2.24   5.94516   0.12249   0.44618    8C :  0.56    9C :  0.36
   26 delpi  -6.57   2.23   5.96551  -0.40439  -0.37119    8C :  0.56    9C :  0.36
   27 LP     -6.39   1.02   2.01744   3.33612  -2.32072    6N :  0.99
   28 LP     -3.87   1.05   5.41909  -2.83118   1.77187    9C :  0.98
 starting deloc pi regularization ...
 thr    2.20000000000000      # pi deloc LMO           5
 files:
 coordprot.0/xtbscreen.xyz/xtblmoinfo/lmocent.coord
 with protonation site input, xtbdock and
 LMO center info written
 

 SCC (total)                   0 d,  0 h,  0 min,  0.037 sec
 SCC setup                      ...        0 min,  0.000 sec (  0.413%)
 Dispersion                     ...        0 min,  0.000 sec (  0.309%)
 classical contributions        ...        0 min,  0.000 sec (  0.094%)
 integral evaluation            ...        0 min,  0.004 sec ( 11.855%)
 iterations                     ...        0 min,  0.004 sec ( 11.225%)
 molecular gradient             ...        0 min,  0.010 sec ( 26.722%)
 printout                       ...        0 min,  0.018 sec ( 49.248%)

         :::::::::::::::::::::::::::::::::::::::::::::::::::::
         ::                     SUMMARY                     ::
         :::::::::::::::::::::::::::::::::::::::::::::::::::::
         :: total energy             -29.878377138407 Eh    ::
         :: gradient norm              0.000514013269 Eh/a0 ::
         :: HOMO-LUMO gap              0.343615889646 eV    ::
         ::.................................................::
         :: SCC energy               -30.290079021386 Eh    ::
         :: -> isotropic ES            0.123821943834 Eh    ::
         :: -> anisotropic ES          0.005995924755 Eh    ::
         :: -> anisotropic XC          0.018270481189 Eh    ::
         :: -> dispersion             -0.018417029478 Eh    ::
         :: repulsion energy           0.411746793745 Eh    ::
         :: add. restraining           0.000000000000 Eh    ::
         :: total charge              -1.000000000000 e     ::
         :::::::::::::::::::::::::::::::::::::::::::::::::::::

           -------------------------------------------------
          |                Property Printout                |
           -------------------------------------------------

    * Orbital Energies and Occupations

         #    Occupation            Energy/Eh            Energy/eV
      -------------------------------------------------------------
         1        2.0000           -0.5820638             -15.8388
       ...           ...                  ...                  ...
        16        2.0000           -0.3260295              -8.8717
        17        2.0000           -0.3205264              -8.7220
        18        2.0000           -0.3165208              -8.6130
        19        2.0000           -0.3084959              -8.3946
        20        2.0000           -0.2987436              -8.1292
        21        2.0000           -0.2759505              -7.5090
        22        2.0000           -0.2511024              -6.8328
        23        2.0000           -0.2371459              -6.4531
        24        2.0000           -0.2251942              -6.1278
        25        2.0000           -0.1925484              -5.2395
        26        2.0000           -0.1806416              -4.9155
        27        2.0000           -0.1565185              -4.2591
        28        1.9974           -0.1023292              -2.7845 (HOMO)
        29        0.0026           -0.0897015              -2.4409 (LUMO)
        30                         -0.0639275              -1.7396
        31                         -0.0375733              -1.0224
        32                          0.0236986               0.6449
        33                          0.0270865               0.7371
        34                          0.1008821               2.7451
        35                          0.1324209               3.6034
        36                          0.1641826               4.4676
        37                          0.1775004               4.8300
        38                          0.1980891               5.3903
        39                          0.2449273               6.6648
       ...                                ...                  ...
        56                          0.8673778              23.6026
      -------------------------------------------------------------
                  HL-Gap            0.0126277 Eh            0.3436 eV
             Fermi-level           -0.0960154 Eh           -2.6127 eV

     #   Z          covCN         q      C6AA      α(0)
     1   6 C        3.772    -0.092    22.278     6.726
     2   6 C        2.972     0.017    27.627     8.622
     3   6 C        3.120    -0.057    29.234     8.855
     4   6 C        3.131    -0.004    27.901     8.647
     5   6 C        3.254     0.041    26.022     8.252
     6   7 N        1.954    -0.333    29.458     8.049
     7   7 N        2.949    -0.057    22.340     7.020
     8   6 C        3.071    -0.020    28.426     8.742
     9   6 C        2.001    -0.366    42.745    10.559
    10   6 C        2.943    -0.031    28.773     8.798
    11  16 S        2.297    -0.208   149.918    20.608
    12   1 H        0.924     0.024     2.669     2.555
    13   1 H        0.924     0.025     2.665     2.553
    14   1 H        0.925     0.031     2.565     2.505
    15   1 H        0.926     0.020     2.733     2.585
    16   1 H        0.860     0.072     2.075     2.257
    17   1 H        0.925    -0.088     5.167     3.555
    18   1 H        0.927     0.025     2.665     2.553

 Mol. C6AA /au·bohr⁶  :       5954.335035
 Mol. C8AA /au·bohr⁸  :     164315.793270
 Mol. α(0) /au        :        123.438205


Wiberg/Mayer (AO) data.
largest (>0.10) Wiberg bond orders for each atom

 ---------------------------------------------------------------------------
     #   Z sym  total        # sym  WBO       # sym  WBO       # sym  WBO
 ---------------------------------------------------------------------------
     1   6 C    3.997 --     2 C    1.024    14 H    0.987    13 H    0.978
                            12 H    0.975
     2   6 C    3.938 --     3 C    1.656    11 S    1.113     1 C    1.024
                            10 C    0.108
     3   6 C    3.985 --     2 C    1.656     4 C    1.184    15 H    0.963
                            11 S    0.101
     4   6 C    3.975 --    10 C    1.537     3 C    1.184     5 C    1.109
     5   6 C    3.934 --     6 N    1.364     9 C    1.231     4 C    1.109
                             7 N    0.106
     6   7 N    2.911 --     5 C    1.364     7 N    1.199     8 C    0.202
     7   7 N    3.534 --     6 N    1.199     8 C    1.151    16 H    0.955
                             5 C    0.106
     8   6 C    3.885 --     9 C    1.525     7 N    1.151    17 H    0.961
                             6 N    0.202
     9   6 C    2.988 --     8 C    1.525     5 C    1.231
    10   6 C    3.906 --     4 C    1.537    11 S    1.118    18 H    0.970
                             2 C    0.108
    11  16 S    2.509 --    10 C    1.118     2 C    1.113     3 C    0.101
    12   1 H    0.999 --     1 C    0.975
    13   1 H    0.999 --     1 C    0.978
    14   1 H    0.999 --     1 C    0.987
    15   1 H    1.000 --     3 C    0.963
    16   1 H    0.994 --     7 N    0.955
    17   1 H    0.992 --     8 C    0.961
    18   1 H    0.999 --    10 C    0.970
 ---------------------------------------------------------------------------

Topologies differ in total number of bonds
Writing topology from bond orders to xtbtopo.mol

molecular dipole:
                 x           y           z       tot (Debye)
 q only:       -2.840       0.521      -0.201
   full:       -2.435       1.359      -0.732       7.327
molecular quadrupole (traceless):
                xx          xy          yy          xz          yz          zz
 q only:      -19.445      -3.105       8.068       1.994       3.144      11.377
  q+dip:      -15.446       1.330       5.951      -0.876       3.176       9.495
   full:      -15.829       1.006       5.428      -0.727       4.717      10.401

           -------------------------------------------------
          |                Geometry Summary                 |
           -------------------------------------------------

      molecular mass/u    :      163.2196663
   center of mass at/Å    :        0.1022942      -0.3120445       0.1023193
  moments of inertia/u·Å² :        0.1793501E+03   0.9307105E+03   0.1106887E+04
rotational constants/cm⁻¹ :        0.9399289E-01   0.1811265E-01   0.1522977E-01

 * 17 selected distances

     #   Z          #   Z                                           value/Å
     2   6 C        3   6 C                                       1.3517804
     3   6 C        4   6 C                                       1.4312828
     4   6 C        5   6 C                                       1.4361202
     5   6 C        6   7 N                                       1.3529987
     6   7 N        7   7 N                                       1.3365729
     7   7 N        8   6 C                                       1.3832133
     8   6 C        9   6 C                                       1.3843518
     4   6 C       10   6 C                                       1.3655107
     2   6 C       11  16 S                                       1.7456041 (max)
    10   6 C       11  16 S                                       1.7342832
     1   6 C       12   1 H                                       1.0923615
     1   6 C       13   1 H                                       1.0914258
     1   6 C       14   1 H                                       1.0882839
     3   6 C       15   1 H                                       1.0766216
     7   7 N       16   1 H                                       1.0135108 (min)
     8   6 C       17   1 H                                       1.0861074
    10   6 C       18   1 H                                       1.0703257

 * 6 distinct bonds (by element types)

   Z      Z             #   av. dist./Å        max./Å        min./Å
   1 H    6 C           6     1.0841876     1.0923615     1.0703257
   6 C    6 C           5     1.3938092     1.4361202     1.3517804
   1 H    7 N           1     1.0135108     1.0135108     1.0135108
   6 C    7 N           2     1.3681060     1.3832133     1.3529987
   7 N    7 N           1     1.3365729     1.3365729     1.3365729
   6 C   16 S           2     1.7399436     1.7456041     1.7342832


optimized geometry written to: xtbopt.xyz


           -------------------------------------------------
          | TOTAL ENERGY              -29.878377138407 Eh   |
          | GRADIENT NORM               0.000514013269 Eh/α |
          | HOMO-LUMO GAP               0.343615889646 eV   |
           -------------------------------------------------

------------------------------------------------------------------------
 * finished run on 2022/11/02 at 18:13:37.678     
------------------------------------------------------------------------
 total:
 * wall-time:     0 d,  0 h,  0 min,  0.404 sec
 *  cpu-time:     0 d,  0 h,  0 min,  0.355 sec
 * ratio c/w:     0.878 speedup
 SCF:
 * wall-time:     0 d,  0 h,  0 min,  0.054 sec
 *  cpu-time:     0 d,  0 h,  0 min,  0.048 sec
 * ratio c/w:     0.897 speedup
 ANC optimizer:
 * wall-time:     0 d,  0 h,  0 min,  0.281 sec
 *  cpu-time:     0 d,  0 h,  0 min,  0.275 sec
 * ratio c/w:     0.980 speedup

