18
 energy: -29.878377138407 gnorm: 0.000514013269 xtb: 6.4.1 (afa7bdf)
C        -3.56542479085136    0.07661160170423   -0.19543207766312
C        -2.16343587140817   -0.34989502921426    0.09566675333597
C        -1.00546790123523    0.24875379189175   -0.26216005951897
C         0.17420933414568   -0.43228651061460    0.17728993640478
C         1.51349668906385    0.01680926236330   -0.08167668799778
N         1.69148867463641    1.14440571408526   -0.80793455085172
N         3.02083145309931    1.27380494381595   -0.85824126474826
C         3.64941809506366    0.24792277732299   -0.17580182041746
C         2.72822289348447   -0.62963960348722    0.36982961431670
C        -0.14353058736015   -1.56210741620301    0.87526234858409
S        -1.85542319663722   -1.80754779025616    1.00534262202843
H        -3.77417335453626    0.01653902566438   -1.26597817662135
H        -3.72569055025784    1.10907715183196    0.12006746059282
H        -4.27235316825642   -0.56285163822462    0.32964021064539
H        -0.95235143154021    1.16284896362274   -0.82848397498221
H         3.42172222391050    2.06042198973348   -1.35596044948727
H         4.73523309797887    0.25563864814739   -0.15181316044763
H         0.52322839069971   -2.26850488218326    1.32474227682706
