      -----------------------------------------------------------      
     |                   =====================                   |     
     |                           x T B                           |     
     |                   =====================                   |     
     |                         S. Grimme                         |     
     |          Mulliken Center for Theoretical Chemistry        |     
     |                    University of Bonn                     |     
      -----------------------------------------------------------      

   * xtb version 6.4.1 (afa7bdf) compiled by 'ehlert@majestix' on 2021-06-10

   xtb is free software: you can redistribute it and/or modify it under
   the terms of the GNU Lesser General Public License as published by
   the Free Software Foundation, either version 3 of the License, or
   (at your option) any later version.
   
   xtb is distributed in the hope that it will be useful,
   but WITHOUT ANY WARRANTY; without even the implied warranty of
   MERCHANTABILITY or FITNESS FOR A PARTICULAR PURPOSE.  See the
   GNU Lesser General Public License for more details.
   
   Cite this work as:
   * C. Bannwarth, E. Caldeweyher, S. Ehlert, A. Hansen, P. Pracht,
     J. Seibert, S. Spicher, S. Grimme, WIREs Comput. Mol. Sci., 2020, 11,
     e01493. DOI: 10.1002/wcms.1493
   
   for GFN2-xTB:
   * C. Bannwarth, S. Ehlert and S. Grimme., J. Chem. Theory Comput., 2019,
     15, 1652-1671. DOI: 10.1021/acs.jctc.8b01176
   for GFN1-xTB:
   * S. Grimme, C. Bannwarth, P. Shushkov, J. Chem. Theory Comput., 2017,
     13, 1989-2009. DOI: 10.1021/acs.jctc.7b00118
   for GFN0-xTB:
   * P. Pracht, E. Caldeweyher, S. Ehlert, S. Grimme, ChemRxiv, 2019, preprint.
     DOI: 10.26434/chemrxiv.8326202.v1
   for GFN-FF:
   * S. Spicher and S. Grimme, Angew. Chem. Int. Ed., 2020, 59, 15665-15673.
     DOI: 10.1002/anie.202004239
   
   for DFT-D4:
   * E. Caldeweyher, C. Bannwarth and S. Grimme, J. Chem. Phys., 2017,
     147, 034112. DOI: 10.1063/1.4993215
   * E. Caldeweyher, S. Ehlert, A. Hansen, H. Neugebauer, S. Spicher,
     C. Bannwarth and S. Grimme, J. Chem. Phys., 2019, 150, 154122.
     DOI: 10.1063/1.5090222
   * E. Caldeweyher, J.-M. Mewes, S. Ehlert and S. Grimme, Phys. Chem. Chem. Phys.
     2020, 22, 8499-8512. DOI: 10.1039/D0CP00502A
   
   for sTDA-xTB:
   * S. Grimme and C. Bannwarth, J. Chem. Phys., 2016, 145, 054103.
     DOI: 10.1063/1.4959605
   
   in the mass-spec context:
   * V. Asgeirsson, C. Bauer and S. Grimme, Chem. Sci., 2017, 8, 4879.
     DOI: 10.1039/c7sc00601b
   * J. Koopman and S. Grimme, ACS Omega 2019, 4, 12, 15120-15133.
     DOI: 10.1021/acsomega.9b02011
   
   for metadynamics refer to:
   * S. Grimme, J. Chem. Theory Comput., 2019, 155, 2847-2862
     DOI: 10.1021/acs.jctc.9b00143
   
   for SPH calculations refer to:
   * S. Spicher and S. Grimme, J. Chem. Theory Comput., 2021, 17, 1701-1714
     DOI: 10.1021/acs.jctc.0c01306
   
   with help from (in alphabetical order)
   P. Atkinson, C. Bannwarth, F. Bohle, G. Brandenburg, E. Caldeweyher
   M. Checinski, S. Dohm, S. Ehlert, S. Ehrlich, I. Gerasimov, J. Koopman
   C. Lavigne, S. Lehtola, F. März, M. Müller, F. Musil, H. Neugebauer
   J. Pisarek, C. Plett, P. Pracht, J. Seibert, P. Shushkov, S. Spicher
   M. Stahn, M. Steiner, T. Strunk, J. Stückrath, T. Rose, and J. Unsleber
   
 * started run on 2022/11/02 at 18:13:40.723     

           -------------------------------------------------
          |                Calculation Setup                |
           -------------------------------------------------

          program call               : /lustre/hpc/kemi/borup/pKalculator/dep/xtb-6.4.1/bin/xtb --gfn 2 /lustre/hpc/kemi/borup/pKalculator/calc/test#-1=7/conf07/test#-1=7_conf07_gfn2.xyz --opt --lmo --chrg -1 --uhf 0
          hostname                   : fend01.cluster
          coordinate file            : /lustre/hpc/kemi/borup/pKalculator/calc/test#-1=7/conf07/test#-1=7_conf07_gfn2.xyz
          omp threads                :                     1
          number of atoms            :                    18
          number of electrons        :                    56
          charge                     :                    -1
          spin                       :                   0.0
          first test random number   :      0.22156163250689

   ID    Z sym.   atoms
    1    6 C      1-5, 8-10
    2    7 N      6, 7
    3   16 S      11
    4    1 H      12-18

           -------------------------------------------------
          |                 G F N 2 - x T B                 |
           -------------------------------------------------

        Reference                      10.1021/acs.jctc.8b01176
      * Hamiltonian:
        H0-scaling (s, p, d)           1.850000    2.230000    2.230000
        zeta-weighting                 0.500000
      * Dispersion:
        s8                             2.700000
        a1                             0.520000
        a2                             5.000000
        s9                             5.000000
      * Repulsion:
        kExp                           1.500000    1.000000
        rExp                           1.000000
      * Coulomb:
        alpha                          2.000000
        third order                    shell-resolved
        anisotropic                    true
        a3                             3.000000
        a5                             4.000000
        cn-shift                       1.200000
        cn-exp                         4.000000
        max-rad                        5.000000


          ...................................................
          :                      SETUP                      :
          :.................................................:
          :  # basis functions                  57          :
          :  # atomic orbitals                  56          :
          :  # shells                           30          :
          :  # electrons                        56          :
          :  max. iterations                   250          :
          :  Hamiltonian                  GFN2-xTB          :
          :  restarted?                      false          :
          :  GBSA solvation                  false          :
          :  PC potential                    false          :
          :  electronic temp.          300.0000000     K    :
          :  accuracy                    1.0000000          :
          :  -> integral cutoff          0.2500000E+02      :
          :  -> integral neglect         0.1000000E-07      :
          :  -> SCF convergence          0.1000000E-05 Eh   :
          :  -> wf. convergence          0.1000000E-03 e    :
          :  Broyden damping             0.4000000          :
          ...................................................

 iter      E             dE          RMSdq      gap      omega  full diag
   1    -30.1515188 -0.301515E+02  0.414E+00    3.07       0.0  T
   2    -30.2271871 -0.756682E-01  0.371E+00    0.60       1.0  T
   3    -30.3080216 -0.808345E-01  0.183E+00    1.43       1.0  T
   4    -30.3053354  0.268612E-02  0.862E-01    1.14       1.0  T
   5    -30.3100539 -0.471846E-02  0.317E-01    1.20       1.0  T
   6    -30.3109599 -0.906023E-03  0.119E-01    1.31       1.0  T
   7    -30.3110331 -0.731773E-04  0.475E-02    1.29       1.0  T
   8    -30.3110380 -0.493223E-05  0.242E-02    1.30       1.0  T
   9    -30.3110417 -0.370705E-05  0.117E-02    1.29       2.0  T
  10    -30.3110422 -0.421783E-06  0.376E-03    1.30       6.3  T
  11    -30.3110422 -0.943543E-07  0.204E-03    1.29      11.5  T
  12    -30.3110423 -0.101162E-07  0.803E-04    1.29      29.3  T
  13    -30.3110423 -0.520051E-08  0.245E-04    1.29      96.2  T

   *** convergence criteria satisfied after 13 iterations ***

         #    Occupation            Energy/Eh            Energy/eV
      -------------------------------------------------------------
         1        2.0000           -0.5398494             -14.6900
       ...           ...                  ...                  ...
        22        2.0000           -0.2576407              -7.0108
        23        2.0000           -0.2448476              -6.6626
        24        2.0000           -0.2388362              -6.4991
        25        2.0000           -0.2357304              -6.4146
        26        2.0000           -0.1869705              -5.0877
        27        2.0000           -0.1619389              -4.4066
        28        2.0000           -0.1156186              -3.1461 (HOMO)
        29                         -0.0680592              -1.8520 (LUMO)
        30                         -0.0246684              -0.6713
        31                         -0.0153463              -0.4176
        32                         -0.0022618              -0.0615
        33                          0.0852118               2.3187
       ...                                ...                  ...
        56                          0.9119675              24.8159
      -------------------------------------------------------------
                  HL-Gap            0.0475593 Eh            1.2942 eV
             Fermi-level           -0.0918389 Eh           -2.4991 eV
 
 localization/xTB-IFF output generation
 averaging CT terms over            1  occ. levels
 averaging CT terms over            1  virt. levels
 dipole moment from electron density (au)
     X       Y       Z   
  -1.8426   1.9788   1.3625  total (Debye):    7.696
cpu  time for init local    0.00 s
wall time for init local    0.00 s
 doing rotations ...
 initialization of trafo matrix to unity

 converged in     44 iterations, threshold :   0.97877832D-06
 doing transformations ...
 lmo centers(Z=2) and atoms on file <lmocent.coord>
 LMO Fii/eV  ncent    charge center   contributions...
    1 sigma -13.03   1.95  -4.77005   1.66748   1.00550    7N :  0.57    6N :  0.44
    2 sigma -12.54   1.92  -6.41072   0.71724   0.24556    7N :  0.58    8C :  0.43
    3 sigma -12.35   1.97  -6.66393   2.38492   1.44297    7N :  0.55   16H :  0.45
    4 sigma -10.99   2.01  -8.07921  -0.70836  -0.86150   17H :  0.51    8C :  0.49
    5 sigma -10.12   1.99   7.17090   0.40079   2.18254   14H :  0.51    1C :  0.49
    6 sigma -10.11   1.98   6.84856   2.20689   0.89792   12H :  0.51    1C :  0.50
    7 sigma -10.09   2.00  -3.55908  -0.98980  -0.86879    9C :  0.52    5C :  0.48
    8 sigma -10.08   1.96   5.77806   0.28769   0.44689    1C :  0.54    2C :  0.47
    9 sigma -10.05   1.97   7.96617   0.44583   0.09247   13H :  0.51    1C :  0.50
   10 sigma  -9.74   2.01  -4.52236  -2.69108  -2.14440   18H :  0.50    9C :  0.50
   11 pi     -9.47   2.15  -5.59617  -1.28771  -0.54579    9C :  0.49    8C :  0.48
   12 pi     -9.47   2.15  -5.56019  -0.69182  -1.36736    9C :  0.49    8C :  0.48
   13 pi     -9.39   2.10  -3.13955   0.55684   0.84331    6N :  0.56    5C :  0.40
   14 pi     -9.38   2.10  -3.10737   1.10061   0.09344    6N :  0.56    5C :  0.40
   15 sigma  -9.38   1.96   4.54321  -1.63094  -0.99950   11S :  0.57    2C :  0.43
   16 sigma  -9.24   2.00  -1.27435  -0.51480  -0.42677    5C :  0.55    4C :  0.45
   17 pi     -9.14   1.51  -5.77345   1.29167   0.68820    7N :  0.81    8C :  0.10
   18 sigma  -8.84   2.01   1.94543   1.71840   1.33343   15H :  0.52    3C :  0.47
   19 sigma  -8.79   1.98   1.14264  -0.04243   0.01915    3C :  0.54    4C :  0.47
   20 LP     -8.44   1.15   4.88673  -2.12524  -4.40305   11S :  0.93
   21 LP     -8.44   1.15   4.71581  -5.02671  -0.40182   11S :  0.93
   22 sigma  -8.42   1.81   2.88214  -2.87758  -1.97140   11S :  0.66   10C :  0.33
   23 pi     -8.05   2.06   3.39022   0.43827  -0.20088    2C :  0.51    3C :  0.47
   24 pi     -8.04   2.06   3.35538  -0.18590   0.65845    2C :  0.51    3C :  0.47
   25 LP     -7.60   1.02  -2.63635   3.03149   2.08671    6N :  0.99
   26 delpi  -7.11   2.28   0.50063  -1.77610  -0.67315    4C :  0.55   10C :  0.37
   27 delpi  -7.10   2.28   0.53360  -1.20678  -1.44998    4C :  0.55   10C :  0.36
   28 LP     -4.52   1.11   0.41422  -4.26676  -3.08309   10C :  0.95
 starting deloc pi regularization ...
 thr    2.20000000000000      # pi deloc LMO           5
 files:
 coordprot.0/xtbscreen.xyz/xtblmoinfo/lmocent.coord
 with protonation site input, xtbdock and
 LMO center info written
 

 SCC (total)                   0 d,  0 h,  0 min,  0.077 sec
 SCC setup                      ...        0 min,  0.000 sec (  0.409%)
 Dispersion                     ...        0 min,  0.000 sec (  0.308%)
 classical contributions        ...        0 min,  0.000 sec (  0.085%)
 integral evaluation            ...        0 min,  0.005 sec (  6.058%)
 iterations                     ...        0 min,  0.018 sec ( 23.457%)
 molecular gradient             ...        0 min,  0.010 sec ( 12.548%)
 printout                       ...        0 min,  0.044 sec ( 57.063%)

         :::::::::::::::::::::::::::::::::::::::::::::::::::::
         ::                     SUMMARY                     ::
         :::::::::::::::::::::::::::::::::::::::::::::::::::::
         :: total energy             -29.892125350687 Eh    ::
         :: gradient norm              0.123252817607 Eh/a0 ::
         :: HOMO-LUMO gap              1.294155242264 eV    ::
         ::.................................................::
         :: SCC energy               -30.311042260472 Eh    ::
         :: -> isotropic ES            0.112187591180 Eh    ::
         :: -> anisotropic ES          0.009792434637 Eh    ::
         :: -> anisotropic XC          0.018124656277 Eh    ::
         :: -> dispersion             -0.018304231701 Eh    ::
         :: repulsion energy           0.418972155132 Eh    ::
         :: add. restraining           0.000000000000 Eh    ::
         :: total charge              -1.000000000000 e     ::
         :::::::::::::::::::::::::::::::::::::::::::::::::::::

      ----------------------------------------------------------- 
     |                   =====================                   |
     |                        A N C O P T                        |
     |                   =====================                   |
     |               Approximate Normal Coordinate               |
     |                Rational Function Optimizer                |
      ----------------------------------------------------------- 

          ...................................................
          :                      SETUP                      :
          :.................................................:
          :   optimization level            normal          :
          :   max. optcycles                   200          :
          :   ANC micro-cycles                  20          :
          :   degrees of freedom                48          :
          :.................................................:
          :   RF solver                   davidson          :
          :   write xtbopt.log                true          :
          :   linear?                        false          :
          :   energy convergence         0.5000000E-05 Eh   :
          :   grad. convergence          0.1000000E-02 Eh/α :
          :   maximium RF displ.         1.0000000          :
          :   Hlow (freq-cutoff)         0.1000000E-01      :
          :   Hmax (freq-cutoff)         5.0000000          :
          :   S6 in model hess.         20.0000000          :
          ...................................................

generating ANC from model Hessian ...
Using Lindh-Hessian (1995)
 Shifting diagonal of input Hessian by   8.262018729106270E-003
 Lowest  eigenvalues of input Hessian
    0.000000    0.000000    0.000000    0.000000    0.000000    0.000000
    0.010000    0.011678    0.012893    0.017501    0.018315    0.030105
    0.030616    0.038001    0.039966    0.043428    0.067405    0.072935
 Highest eigenvalues
    1.754028    1.761601    1.847113    1.940985    1.982780    2.061463
 

........................................................................
.............................. CYCLE    1 ..............................
........................................................................
   1    -30.3110423 -0.303110E+02  0.964E-05    1.29       0.0  T
   2    -30.3110423 -0.333102E-10  0.580E-05    1.29     406.5  T
   3    -30.3110423 -0.451905E-11  0.392E-05    1.29     601.9  T
     SCC iter.                  ...        0 min,  0.004 sec
     gradient                   ...        0 min,  0.010 sec
 * total energy  :   -29.8921254 Eh     change       -0.1833733E-09 Eh
   gradient norm :     0.1232508 Eh/α   predicted     0.0000000E+00 (-100.00%)
   displ. norm   :     0.2538175 α      lambda       -0.1879284E-01
   maximum displ.:     0.1244828 α      in ANC's #15, #27, #9, ...

........................................................................
.............................. CYCLE    2 ..............................
........................................................................
   1    -30.3202371 -0.303202E+02  0.482E-01    1.73       0.0  T
   2    -30.3204411 -0.204007E-03  0.267E-01    1.89       1.0  T
   3    -30.3203016  0.139536E-03  0.205E-01    1.78       1.0  T
   4    -30.3206139 -0.312329E-03  0.638E-02    1.86       1.0  T
   5    -30.3206437 -0.297332E-04  0.360E-02    1.85       1.0  T
   6    -30.3206475 -0.385057E-05  0.148E-02    1.85       1.6  T
   7    -30.3206492 -0.165930E-05  0.695E-03    1.85       3.4  T
   8    -30.3206493 -0.169144E-06  0.341E-03    1.85       6.9  T
   9    -30.3206494 -0.798970E-07  0.791E-04    1.85      29.8  T
  10    -30.3206494 -0.282039E-08  0.453E-04    1.85      52.1  T
     SCC iter.                  ...        0 min,  0.012 sec
     gradient                   ...        0 min,  0.010 sec
 * total energy  :   -29.9046816 Eh     change       -0.1255626E-01 Eh
   gradient norm :     0.0498036 Eh/α   predicted    -0.1000176E-01 ( -20.34%)
   displ. norm   :     0.1862582 α      lambda       -0.4477526E-02
   maximum displ.:     0.1346957 α      in ANC's #9, #15, #17, ...

........................................................................
.............................. CYCLE    3 ..............................
........................................................................
   1    -30.3250902 -0.303251E+02  0.249E-01    2.05       0.0  T
   2    -30.3251867 -0.965121E-04  0.143E-01    2.13       1.0  T
   3    -30.3251820  0.471829E-05  0.106E-01    2.08       1.0  T
   4    -30.3252249 -0.429277E-04  0.444E-02    2.13       1.0  T
   5    -30.3252520 -0.270968E-04  0.200E-02    2.11       1.2  T
   6    -30.3252528 -0.732754E-06  0.863E-03    2.12       2.7  T
   7    -30.3252531 -0.360962E-06  0.361E-03    2.12       6.5  T
   8    -30.3252532 -0.288933E-07  0.204E-03    2.12      11.6  T
   9    -30.3252532 -0.370348E-07  0.511E-04    2.12      46.1  T
  10    -30.3252532 -0.152883E-08  0.298E-04    2.12      79.1  T
     SCC iter.                  ...        0 min,  0.012 sec
     gradient                   ...        0 min,  0.010 sec
 * total energy  :   -29.9072427 Eh     change       -0.2561059E-02 Eh
   gradient norm :     0.0147404 Eh/α   predicted    -0.2316429E-02 (  -9.55%)
   displ. norm   :     0.0720338 α      lambda       -0.4022009E-03
   maximum displ.:     0.0492948 α      in ANC's #9, #6, #5, ...

........................................................................
.............................. CYCLE    4 ..............................
........................................................................
   1    -30.3251415 -0.303251E+02  0.603E-02    2.14       0.0  T
   2    -30.3251469 -0.534359E-05  0.356E-02    2.13       1.0  T
   3    -30.3251449  0.200979E-05  0.200E-02    2.14       1.2  T
   4    -30.3251481 -0.326164E-05  0.110E-02    2.13       2.1  T
   5    -30.3251495 -0.130870E-05  0.408E-03    2.14       5.8  T
   6    -30.3251495 -0.258753E-07  0.230E-03    2.14      10.2  T
   7    -30.3251495 -0.134741E-07  0.765E-04    2.14      30.8  T
   8    -30.3251495 -0.228374E-08  0.328E-04    2.14      71.8  T
     SCC iter.                  ...        0 min,  0.009 sec
     gradient                   ...        0 min,  0.010 sec
 * total energy  :   -29.9075184 Eh     change       -0.2757379E-03 Eh
   gradient norm :     0.0081608 Eh/α   predicted    -0.2021437E-03 ( -26.69%)
   displ. norm   :     0.0583188 α      lambda       -0.1574837E-03
   maximum displ.:     0.0338302 α      in ANC's #6, #5, #9, ...

........................................................................
.............................. CYCLE    5 ..............................
........................................................................
   1    -30.3247166 -0.303247E+02  0.499E-02    2.14       0.0  T
   2    -30.3247185 -0.187174E-05  0.307E-02    2.12       1.0  T
   3    -30.3247159  0.260353E-05  0.220E-02    2.14       1.1  T
   4    -30.3247226 -0.672580E-05  0.640E-03    2.13       3.7  T
   5    -30.3247229 -0.287479E-06  0.224E-03    2.13      10.5  T
   6    -30.3247229 -0.168092E-07  0.131E-03    2.13      18.0  T
   7    -30.3247229 -0.482867E-08  0.645E-04    2.13      36.5  T
   8    -30.3247229 -0.162916E-08  0.305E-04    2.13      77.3  T
     SCC iter.                  ...        0 min,  0.009 sec
     gradient                   ...        0 min,  0.010 sec
 * total energy  :   -29.9076124 Eh     change       -0.9397014E-04 Eh
   gradient norm :     0.0042657 Eh/α   predicted    -0.7900920E-04 ( -15.92%)
   displ. norm   :     0.0282831 α      lambda       -0.2597811E-04
   maximum displ.:     0.0221073 α      in ANC's #5, #4, #2, ...

........................................................................
.............................. CYCLE    6 ..............................
........................................................................
   1    -30.3247366 -0.303247E+02  0.214E-02    2.13       0.0  T
   2    -30.3247369 -0.237489E-06  0.127E-02    2.12       1.9  T
   3    -30.3247366  0.250783E-06  0.960E-03    2.12       2.5  T
   4    -30.3247378 -0.117021E-05  0.229E-03    2.12      10.3  T
   5    -30.3247378 -0.290286E-07  0.941E-04    2.12      25.1  T
   6    -30.3247378 -0.815097E-08  0.363E-04    2.12      64.9  T
     SCC iter.                  ...        0 min,  0.007 sec
     gradient                   ...        0 min,  0.010 sec
 * total energy  :   -29.9076316 Eh     change       -0.1924276E-04 Eh
   gradient norm :     0.0023626 Eh/α   predicted    -0.1299934E-04 ( -32.45%)
   displ. norm   :     0.0495079 α      lambda       -0.2494638E-04
   maximum displ.:     0.0412827 α      in ANC's #5, #2, #4, ...

........................................................................
.............................. CYCLE    7 ..............................
........................................................................
   1    -30.3248356 -0.303248E+02  0.284E-02    2.12       0.0  T
   2    -30.3248360 -0.420996E-06  0.159E-02    2.12       1.5  T
   3    -30.3248347  0.130925E-05  0.125E-02    2.12       1.9  T
   4    -30.3248368 -0.207534E-05  0.288E-03    2.12       8.2  T
   5    -30.3248369 -0.560031E-07  0.123E-03    2.12      19.1  T
   6    -30.3248369 -0.148108E-07  0.437E-04    2.12      53.9  T
   7    -30.3248369 -0.125669E-08  0.131E-04    2.12     180.5  T
     SCC iter.                  ...        0 min,  0.008 sec
     gradient                   ...        0 min,  0.010 sec
 * total energy  :   -29.9076491 Eh     change       -0.1750439E-04 Eh
   gradient norm :     0.0014022 Eh/α   predicted    -0.1250278E-04 ( -28.57%)
   displ. norm   :     0.0978714 α      lambda       -0.1934090E-04
   maximum displ.:     0.0819032 α      in ANC's #5, #2, #4, ...

........................................................................
.............................. CYCLE    8 ..............................
........................................................................
   1    -30.3248141 -0.303248E+02  0.458E-02    2.12       0.0  T
   2    -30.3248149 -0.799102E-06  0.254E-02    2.12       1.0  T
   3    -30.3248126  0.228003E-05  0.141E-02    2.12       1.7  T
   4    -30.3248152 -0.259136E-05  0.404E-03    2.12       5.8  T
   5    -30.3248153 -0.137217E-06  0.181E-03    2.12      13.0  T
   6    -30.3248153 -0.315684E-07  0.686E-04    2.12      34.4  T
   7    -30.3248154 -0.553091E-08  0.183E-04    2.12     128.8  T
     SCC iter.                  ...        0 min,  0.008 sec
     gradient                   ...        0 min,  0.010 sec
 * total energy  :   -29.9076685 Eh     change       -0.1936950E-04 Eh
   gradient norm :     0.0037643 Eh/α   predicted    -0.9713327E-05 ( -49.85%)
   displ. norm   :     0.0644854 α      lambda       -0.2002350E-04
   maximum displ.:     0.0529579 α      in ANC's #5, #2, #4, ...

........................................................................
.............................. CYCLE    9 ..............................
........................................................................
   1    -30.3247747 -0.303248E+02  0.263E-02    2.12       0.0  T
   2    -30.3247748 -0.747863E-07  0.149E-02    2.12       1.6  T
   3    -30.3247741  0.678593E-06  0.679E-03    2.12       3.5  T
   4    -30.3247748 -0.731908E-06  0.192E-03    2.12      12.3  T
   5    -30.3247749 -0.290238E-07  0.769E-04    2.12      30.6  T
   6    -30.3247749 -0.414865E-08  0.263E-04    2.12      89.7  T
     SCC iter.                  ...        0 min,  0.007 sec
     gradient                   ...        0 min,  0.010 sec
 * total energy  :   -29.9076870 Eh     change       -0.1846137E-04 Eh
   gradient norm :     0.0038776 Eh/α   predicted    -0.1005302E-04 ( -45.55%)
   displ. norm   :     0.1101235 α      lambda       -0.4250637E-04
   maximum displ.:     0.0872588 α      in ANC's #5, #2, #4, ...

........................................................................
.............................. CYCLE   10 ..............................
........................................................................
   1    -30.3246473 -0.303246E+02  0.422E-02    2.13       0.0  T
   2    -30.3246474 -0.903727E-07  0.241E-02    2.13       1.0  T
   3    -30.3246433  0.410269E-05  0.173E-02    2.13       1.4  T
   4    -30.3246480 -0.469629E-05  0.289E-03    2.13       8.1  T
   5    -30.3246481 -0.495150E-07  0.122E-03    2.13      19.3  T
   6    -30.3246481 -0.107557E-07  0.352E-04    2.13      66.9  T
   7    -30.3246481 -0.948905E-09  0.159E-04    2.13     147.8  T
     SCC iter.                  ...        0 min,  0.008 sec
     gradient                   ...        0 min,  0.010 sec
 * total energy  :   -29.9077233 Eh     change       -0.3634822E-04 Eh
   gradient norm :     0.0029793 Eh/α   predicted    -0.2151100E-04 ( -40.82%)
   displ. norm   :     0.1762885 α      lambda       -0.5686802E-04
   maximum displ.:     0.1412675 α      in ANC's #5, #2, #4, ...

........................................................................
.............................. CYCLE   11 ..............................
........................................................................
   1    -30.3239549 -0.303240E+02  0.643E-02    2.13       0.0  T
   2    -30.3239553 -0.396753E-06  0.366E-02    2.14       1.0  T
   3    -30.3239481  0.727585E-05  0.225E-02    2.13       1.0  T
   4    -30.3239561 -0.805904E-05  0.453E-03    2.14       5.2  T
   5    -30.3239563 -0.146081E-06  0.168E-03    2.14      14.0  T
   6    -30.3239563 -0.177869E-07  0.552E-04    2.14      42.7  T
   7    -30.3239563 -0.277388E-08  0.231E-04    2.14     102.1  T
     SCC iter.                  ...        0 min,  0.008 sec
     gradient                   ...        0 min,  0.010 sec
 * total energy  :   -29.9077643 Eh     change       -0.4101613E-04 Eh
   gradient norm :     0.0037928 Eh/α   predicted    -0.2931575E-04 ( -28.53%)
   displ. norm   :     0.1569014 α      lambda       -0.5007097E-04
   maximum displ.:     0.1298364 α      in ANC's #5, #2, #4, ...

........................................................................
.............................. CYCLE   12 ..............................
........................................................................
   1    -30.3236889 -0.303237E+02  0.577E-02    2.14       0.0  T
   2    -30.3236892 -0.315600E-06  0.325E-02    2.14       1.0  T
   3    -30.3236847  0.444896E-05  0.176E-02    2.14       1.3  T
   4    -30.3236896 -0.486057E-05  0.411E-03    2.14       5.7  T
   5    -30.3236897 -0.116052E-06  0.149E-03    2.14      15.8  T
   6    -30.3236897 -0.181406E-07  0.481E-04    2.14      49.1  T
   7    -30.3236897 -0.213818E-08  0.209E-04    2.14     112.5  T
     SCC iter.                  ...        0 min,  0.008 sec
     gradient                   ...        0 min,  0.010 sec
 * total energy  :   -29.9077991 Eh     change       -0.3479171E-04 Eh
   gradient norm :     0.0049742 Eh/α   predicted    -0.2565044E-04 ( -26.27%)
   displ. norm   :     0.1205670 α      lambda       -0.7425206E-04
   maximum displ.:     0.1016741 α      in ANC's #5, #2, #4, ...

........................................................................
.............................. CYCLE   13 ..............................
........................................................................
   1    -30.3247543 -0.303248E+02  0.480E-02    2.14       0.0  T
   2    -30.3247550 -0.620786E-06  0.269E-02    2.14       1.0  T
   3    -30.3247545  0.450951E-06  0.741E-03    2.14       3.2  T
   4    -30.3247549 -0.415831E-06  0.370E-03    2.14       6.4  T
   5    -30.3247551 -0.141306E-06  0.138E-03    2.14      17.1  T
   6    -30.3247551 -0.126788E-07  0.701E-04    2.14      33.6  T
   7    -30.3247551 -0.680553E-08  0.195E-04    2.14     120.8  T
     SCC iter.                  ...        0 min,  0.008 sec
     gradient                   ...        0 min,  0.010 sec
 * total energy  :   -29.9078487 Eh     change       -0.4958810E-04 Eh
   gradient norm :     0.0044030 Eh/α   predicted    -0.3766491E-04 ( -24.04%)
   displ. norm   :     0.3388151 α      lambda       -0.1009917E-03
   maximum displ.:     0.2771451 α      in ANC's #5, #2, #4, ...

........................................................................
.............................. CYCLE   14 ..............................
........................................................................
   1    -30.3221060 -0.303221E+02  0.126E-01    2.13       0.0  T
   2    -30.3221094 -0.343391E-05  0.719E-02    2.13       1.0  T
   3    -30.3221085  0.855328E-06  0.135E-02    2.13       1.7  T
   4    -30.3221090 -0.456571E-06  0.828E-03    2.13       2.8  T
   5    -30.3221098 -0.774292E-06  0.382E-03    2.13       6.2  T
   6    -30.3221099 -0.139039E-06  0.952E-04    2.13      24.8  T
   7    -30.3221099 -0.102465E-07  0.434E-04    2.13      54.3  T
     SCC iter.                  ...        0 min,  0.008 sec
     gradient                   ...        0 min,  0.010 sec
 * total energy  :   -29.9078398 Eh     change        0.8877578E-05 Eh
   gradient norm :     0.0098007 Eh/α   predicted    -0.5628916E-04 (-734.06%)
   displ. norm   :     0.1475020 α      lambda       -0.2092403E-03
   maximum displ.:     0.1220188 α      in ANC's #5, #2, #4, ...

........................................................................
.............................. CYCLE   15 ..............................
........................................................................
   1    -30.3252505 -0.303253E+02  0.664E-02    2.13       0.0  T
   2    -30.3252533 -0.279336E-05  0.369E-02    2.12       1.0  T
   3    -30.3252469  0.634036E-05  0.236E-02    2.13       1.0  T
   4    -30.3252540 -0.711973E-05  0.731E-03    2.12       3.2  T
   5    -30.3252546 -0.578572E-06  0.217E-03    2.12      10.9  T
   6    -30.3252546 -0.806530E-09  0.967E-04    2.12      24.4  T
   7    -30.3252546 -0.988523E-08  0.359E-04    2.12      65.6  T
     SCC iter.                  ...        0 min,  0.008 sec
     gradient                   ...        0 min,  0.010 sec
 * total energy  :   -29.9079208 Eh     change       -0.8095388E-04 Eh
   gradient norm :     0.0022467 Eh/α   predicted    -0.1068965E-03 (  32.05%)
   displ. norm   :     0.0933541 α      lambda       -0.2766188E-04
   maximum displ.:     0.0730970 α      in ANC's #5, #2, #4, ...

........................................................................
.............................. CYCLE   16 ..............................
........................................................................
   1    -30.3252141 -0.303252E+02  0.322E-02    2.12       0.0  T
   2    -30.3252141 -0.713132E-07  0.187E-02    2.12       1.3  T
   3    -30.3252125  0.166742E-05  0.105E-02    2.12       2.3  T
   4    -30.3252143 -0.183179E-05  0.182E-03    2.12      13.0  T
   5    -30.3252143 -0.893080E-08  0.905E-04    2.12      26.1  T
   6    -30.3252143 -0.644604E-08  0.210E-04    2.12     112.2  T
     SCC iter.                  ...        0 min,  0.007 sec
     gradient                   ...        0 min,  0.010 sec
 * total energy  :   -29.9079455 Eh     change       -0.2477073E-04 Eh
   gradient norm :     0.0015955 Eh/α   predicted    -0.1395152E-04 ( -43.68%)
   displ. norm   :     0.5460942 α      lambda       -0.8646824E-04
   maximum displ.:     0.4226207 α      in ANC's #5, #2, #4, ...

........................................................................
.............................. CYCLE   17 ..............................
........................................................................
   1    -30.3198163 -0.303198E+02  0.195E-01    2.12       0.0  T
   2    -30.3198303 -0.139925E-04  0.111E-01    2.11       1.0  T
   3    -30.3198221  0.818108E-05  0.306E-02    2.12       1.0  T
   4    -30.3198287 -0.662534E-05  0.164E-02    2.11       1.4  T
   5    -30.3198323 -0.357120E-05  0.613E-03    2.11       3.8  T
   6    -30.3198325 -0.201686E-06  0.207E-03    2.11      11.4  T
   7    -30.3198325 -0.425747E-07  0.674E-04    2.11      35.0  T
   8    -30.3198325 -0.201396E-09  0.213E-04    2.11     110.7  T
     SCC iter.                  ...        0 min,  0.009 sec
     gradient                   ...        0 min,  0.010 sec
 * total energy  :   -29.9076120 Eh     change        0.3335683E-03 Eh
   gradient norm :     0.0169453 Eh/α   predicted    -0.4895785E-04 (-114.68%)
   displ. norm   :     0.2694609 α      lambda       -0.7778562E-03
   maximum displ.:     0.2129994 α      in ANC's #5, #2, #4, ...

........................................................................
.............................. CYCLE   18 ..............................
........................................................................
   1    -30.3245748 -0.303246E+02  0.108E-01    2.12       0.0  T
   2    -30.3245820 -0.720087E-05  0.609E-02    2.12       1.0  T
   3    -30.3245817  0.227004E-06  0.145E-02    2.11       1.6  T
   4    -30.3245819 -0.132592E-06  0.759E-03    2.12       3.1  T
   5    -30.3245825 -0.623432E-06  0.396E-03    2.11       6.0  T
   6    -30.3245826 -0.125822E-06  0.124E-03    2.12      19.0  T
   7    -30.3245826 -0.176013E-07  0.436E-04    2.12      54.0  T
   8    -30.3245826 -0.813039E-10  0.171E-04    2.12     138.0  T
     SCC iter.                  ...        0 min,  0.009 sec
     gradient                   ...        0 min,  0.010 sec
 * total energy  :   -29.9079811 Eh     change       -0.3690841E-03 Eh
   gradient norm :     0.0041999 Eh/α   predicted    -0.4171709E-03 (  13.03%)
   displ. norm   :     0.0087138 α      lambda       -0.2098312E-04
   maximum displ.:     0.0052804 α      in ANC's #5, #6, #24, ...

........................................................................
.............................. CYCLE   19 ..............................
........................................................................
   1    -30.3251432 -0.303251E+02  0.963E-03    2.12       0.0  T
   2    -30.3251433 -0.983479E-07  0.542E-03    2.12       4.4  T
   3    -30.3251431  0.146991E-06  0.396E-03    2.12       5.9  T
   4    -30.3251433 -0.187971E-06  0.109E-03    2.12      21.6  T
   5    -30.3251433 -0.853224E-08  0.476E-04    2.12      49.5  T
   6    -30.3251433 -0.958355E-09  0.233E-04    2.12     101.1  T
     SCC iter.                  ...        0 min,  0.008 sec
     gradient                   ...        0 min,  0.010 sec
 * total energy  :   -29.9079974 Eh     change       -0.1631155E-04 Eh
   gradient norm :     0.0025276 Eh/α   predicted    -0.1049271E-04 ( -35.67%)
   displ. norm   :     0.0283908 α      lambda       -0.2174824E-04
   maximum displ.:     0.0190455 α      in ANC's #2, #24, #1, ...

........................................................................
.............................. CYCLE   20 ..............................
........................................................................
   1    -30.3257319 -0.303257E+02  0.157E-02    2.12       0.0  T
   2    -30.3257321 -0.124837E-06  0.911E-03    2.12       2.6  T
   3    -30.3257315  0.516607E-06  0.724E-03    2.12       3.3  T
   4    -30.3257322 -0.675496E-06  0.147E-03    2.12      16.0  T
   5    -30.3257322 -0.152420E-07  0.724E-04    2.12      32.6  T
   6    -30.3257322 -0.260198E-08  0.308E-04    2.12      76.6  T
     SCC iter.                  ...        0 min,  0.007 sec
     gradient                   ...        0 min,  0.010 sec
 * total energy  :   -29.9080114 Eh     change       -0.1399154E-04 Eh
   gradient norm :     0.0008563 Eh/α   predicted    -0.1088219E-04 ( -22.22%)
   displ. norm   :     0.0690811 α      lambda       -0.1056609E-04
   maximum displ.:     0.0458621 α      in ANC's #2, #5, #24, ...
 * RMSD in coord.:     0.3696504 α      energy gain  -0.1588602E-01 Eh

generating ANC from model Hessian ...
Using Lindh-Hessian (1995)
 Shifting diagonal of input Hessian by   8.130178868973457E-003
 Lowest  eigenvalues of input Hessian
    0.000000    0.000000    0.000000    0.000000    0.000000    0.000000
    0.010000    0.011530    0.013292    0.017603    0.018768    0.030519
    0.031857    0.038541    0.040281    0.041296    0.070095    0.070452
 Highest eigenvalues
    1.700796    1.800883    1.901483    1.985905    2.053762    2.092778
 

........................................................................
.............................. CYCLE   21 ..............................
........................................................................
   1    -30.3258568 -0.303259E+02  0.217E-02    2.12       0.0  T
   2    -30.3258569 -0.429172E-07  0.128E-02    2.13       1.8  T
   3    -30.3258561  0.804501E-06  0.743E-03    2.12       3.2  T
   4    -30.3258570 -0.883833E-06  0.129E-03    2.13      18.3  T
   5    -30.3258570 -0.159014E-07  0.563E-04    2.13      41.9  T
   6    -30.3258570 -0.844217E-09  0.185E-04    2.13     127.7  T
     SCC iter.                  ...        0 min,  0.007 sec
     gradient                   ...        0 min,  0.010 sec
 * total energy  :   -29.9080244 Eh     change       -0.1302550E-04 Eh
   gradient norm :     0.0010718 Eh/α   predicted     0.0000000E+00 (-100.00%)
   displ. norm   :     0.0221301 α      lambda       -0.5029111E-05
   maximum displ.:     0.0187595 α      in ANC's #2, #5, #4, ...

........................................................................
.............................. CYCLE   22 ..............................
........................................................................
   1    -30.3254560 -0.303255E+02  0.110E-02    2.12       0.0  T
   2    -30.3254560 -0.476713E-07  0.623E-03    2.12       3.8  T
   3    -30.3254559  0.132247E-06  0.333E-03    2.13       7.1  T
   4    -30.3254561 -0.149714E-06  0.855E-04    2.12      27.6  T
   5    -30.3254561 -0.596524E-08  0.395E-04    2.12      59.6  T
     SCC iter.                  ...        0 min,  0.006 sec
     gradient                   ...        0 min,  0.009 sec
 * total energy  :   -29.9080295 Eh     change       -0.5068605E-05 Eh
   gradient norm :     0.0003818 Eh/α   predicted    -0.2515608E-05 ( -50.37%)
   displ. norm   :     0.0347492 α      lambda       -0.4088526E-05
   maximum displ.:     0.0282960 α      in ANC's #2, #5, #4, ...

........................................................................
.............................. CYCLE   23 ..............................
........................................................................
   1    -30.3252836 -0.303253E+02  0.145E-02    2.12       0.0  T
   2    -30.3252836 -0.282238E-07  0.842E-03    2.12       2.8  T
   3    -30.3252834  0.185642E-06  0.374E-03    2.12       6.3  T
   4    -30.3252836 -0.208980E-06  0.626E-04    2.12      37.6  T
   5    -30.3252836 -0.326209E-08  0.359E-04    2.12      65.7  T
     SCC iter.                  ...        0 min,  0.006 sec
     gradient                   ...        0 min,  0.010 sec
 * total energy  :   -29.9080345 Eh     change       -0.5068645E-05 Eh
   gradient norm :     0.0007777 Eh/α   predicted    -0.2043525E-05 ( -59.68%)
   displ. norm   :     0.0576213 α      lambda       -0.6131431E-05
   maximum displ.:     0.0437907 α      in ANC's #2, #5, #4, ...

........................................................................
.............................. CYCLE   24 ..............................
........................................................................
   1    -30.3252128 -0.303252E+02  0.193E-02    2.12       0.0  T
   2    -30.3252128 -0.503265E-07  0.113E-02    2.12       2.1  T
   3    -30.3252126  0.273360E-06  0.456E-03    2.12       5.2  T
   4    -30.3252129 -0.313334E-06  0.900E-04    2.12      26.2  T
   5    -30.3252129 -0.177626E-08  0.567E-04    2.12      41.5  T
     SCC iter.                  ...        0 min,  0.006 sec
     gradient                   ...        0 min,  0.010 sec
 * total energy  :   -29.9080423 Eh     change       -0.7794220E-05 Eh
   gradient norm :     0.0011122 Eh/α   predicted    -0.3069249E-05 ( -60.62%)
   displ. norm   :     0.1224347 α      lambda       -0.1171428E-04
   maximum displ.:     0.0896015 α      in ANC's #2, #5, #4, ...

........................................................................
.............................. CYCLE   25 ..............................
........................................................................
   1    -30.3250212 -0.303250E+02  0.391E-02    2.12       0.0  T
   2    -30.3250213 -0.175288E-06  0.231E-02    2.13       1.0  T
   3    -30.3250207  0.637679E-06  0.654E-03    2.12       3.6  T
   4    -30.3250214 -0.741281E-06  0.128E-03    2.13      18.4  T
   5    -30.3250214 -0.429256E-08  0.763E-04    2.13      30.9  T
   6    -30.3250214 -0.412763E-08  0.328E-04    2.13      71.9  T
     SCC iter.                  ...        0 min,  0.007 sec
     gradient                   ...        0 min,  0.009 sec
 * total energy  :   -29.9080548 Eh     change       -0.1249019E-04 Eh
   gradient norm :     0.0016886 Eh/α   predicted    -0.5897422E-05 ( -52.78%)
   displ. norm   :     0.1126908 α      lambda       -0.8808780E-05
   maximum displ.:     0.0825389 α      in ANC's #2, #5, #4, ...

........................................................................
.............................. CYCLE   26 ..............................
........................................................................
   1    -30.3249045 -0.303249E+02  0.359E-02    2.13       0.0  T
   2    -30.3249046 -0.914583E-07  0.212E-02    2.13       1.1  T
   3    -30.3249039  0.682700E-06  0.639E-03    2.12       3.7  T
   4    -30.3249047 -0.750081E-06  0.136E-03    2.13      17.4  T
   5    -30.3249047 -0.115776E-07  0.653E-04    2.13      36.1  T
   6    -30.3249047 -0.212169E-08  0.188E-04    2.13     125.6  T
     SCC iter.                  ...        0 min,  0.007 sec
     gradient                   ...        0 min,  0.009 sec
 * total energy  :   -29.9080637 Eh     change       -0.8870514E-05 Eh
   gradient norm :     0.0019512 Eh/α   predicted    -0.4429072E-05 ( -50.07%)
   displ. norm   :     0.0783964 α      lambda       -0.9772012E-05
   maximum displ.:     0.0553667 α      in ANC's #2, #5, #4, ...

........................................................................
.............................. CYCLE   27 ..............................
........................................................................
   1    -30.3253706 -0.303254E+02  0.256E-02    2.13       0.0  T
   2    -30.3253707 -0.823291E-07  0.151E-02    2.13       1.6  T
   3    -30.3253702  0.510829E-06  0.591E-03    2.13       4.0  T
   4    -30.3253707 -0.559356E-06  0.105E-03    2.13      22.5  T
   5    -30.3253707 -0.843526E-08  0.535E-04    2.13      44.0  T
   6    -30.3253707 -0.179496E-08  0.261E-04    2.13      90.3  T
     SCC iter.                  ...        0 min,  0.007 sec
     gradient                   ...        0 min,  0.009 sec
 * total energy  :   -29.9080740 Eh     change       -0.1032148E-04 Eh
   gradient norm :     0.0007282 Eh/α   predicted    -0.4897988E-05 ( -52.55%)
   displ. norm   :     0.1177425 α      lambda       -0.6106646E-05
   maximum displ.:     0.0790279 α      in ANC's #2, #5, #4, ...

........................................................................
.............................. CYCLE   28 ..............................
........................................................................
   1    -30.3252175 -0.303252E+02  0.370E-02    2.13       0.0  T
   2    -30.3252176 -0.106961E-06  0.219E-02    2.13       1.1  T
   3    -30.3252173  0.324853E-06  0.490E-03    2.13       4.8  T
   4    -30.3252176 -0.369833E-06  0.136E-03    2.13      17.3  T
   5    -30.3252176 -0.102788E-07  0.709E-04    2.13      33.2  T
   6    -30.3252177 -0.511495E-08  0.212E-04    2.13     111.4  T
     SCC iter.                  ...        0 min,  0.007 sec
     gradient                   ...        0 min,  0.009 sec
 * total energy  :   -29.9080794 Eh     change       -0.5363086E-05 Eh
   gradient norm :     0.0011029 Eh/α   predicted    -0.3072385E-05 ( -42.71%)
   displ. norm   :     0.0461803 α      lambda       -0.4989551E-05
   maximum displ.:     0.0251088 α      in ANC's #5, #4, #3, ...

........................................................................
.............................. CYCLE   29 ..............................
........................................................................
   1    -30.3257574 -0.303258E+02  0.176E-02    2.13       0.0  T
   2    -30.3257575 -0.163747E-06  0.102E-02    2.13       2.3  T
   3    -30.3257573  0.240459E-06  0.474E-03    2.13       5.0  T
   4    -30.3257576 -0.305759E-06  0.115E-03    2.13      20.6  T
   5    -30.3257576 -0.812441E-08  0.605E-04    2.13      38.9  T
   6    -30.3257576 -0.258447E-08  0.279E-04    2.13      84.5  T
     SCC iter.                  ...        0 min,  0.007 sec
     gradient                   ...        0 min,  0.010 sec
 * total energy  :   -29.9080829 Eh     change       -0.3571219E-05 Eh
   gradient norm :     0.0005526 Eh/α   predicted    -0.2497519E-05 ( -30.07%)
   displ. norm   :     0.0629667 α      lambda       -0.1597998E-05
   maximum displ.:     0.0371244 α      in ANC's #2, #5, #4, ...

   *** GEOMETRY OPTIMIZATION CONVERGED AFTER 29 ITERATIONS ***

------------------------------------------------------------------------
 total energy gain   :        -0.0159576 Eh      -10.0135 kcal/mol
 total RMSD          :         0.4902420 a0        0.2594 Å
 total power (kW/mol):        -1.4447121 (step)  -62.7907 (real)
------------------------------------------------------------------------

 ANCopt (total)                0 d,  0 h,  0 min,  0.667 sec
 optimizer setup                ...        0 min,  0.001 sec (  0.077%)
 model hessian                  ...        0 min,  0.005 sec (  0.755%)
 ANC generation                 ...        0 min,  0.001 sec (  0.214%)
 coordinate transformation      ...        0 min,  0.000 sec (  0.065%)
 single point calculation       ...        0 min,  0.646 sec ( 96.813%)
 optimization log               ...        0 min,  0.006 sec (  0.838%)
 hessian update                 ...        0 min,  0.000 sec (  0.063%)
 rational function              ...        0 min,  0.006 sec (  0.874%)

================
 final structure:
================
18
 xtb: 6.4.1 (afa7bdf)
C         3.66485103679301    0.43628788047181    0.47136557991154
C         2.34167888109586   -0.10889195174341    0.05356865282871
C         1.09735610095924    0.36544073851362    0.28763611214243
C         0.07029579347368   -0.45306099672707   -0.28309152155539
C        -1.32191983529227   -0.13370810498109   -0.15584952074783
N        -1.78976652671995    0.93780724763503    0.48398054797214
N        -3.13421007376781    0.87386271426736    0.37651994578905
C        -3.53589662317798   -0.21820085687625   -0.32130607570074
C        -2.40726388567600   -0.89356505844768   -0.68220092058582
C         0.47322216140957   -1.59442574748746   -0.98311749195403
S         2.23269567682183   -1.58738539506030   -0.88646102521492
H         3.52809802782375    1.37189984885425    1.01602278775655
H         4.30149769685152    0.62839876464194   -0.39622146188732
H         4.19442141696562   -0.26817541629698    1.11871656004399
H         0.88773394666002    1.26719018613735    0.84636998463024
H        -3.70492243263608    1.59221809481311    0.78966443220031
H        -4.57927452830073   -0.41331505374383   -0.49518486647067
H        -2.31859683328330   -1.80237789397042   -1.24041271915827
 
 Bond Distances (Angstroems)
 ---------------------------
C1-C2=1.4908         C1-H12=1.0912        C1-H13=1.0931        C1-H14=1.0935        C2-C1=1.4908         C2-C3=1.3521         
C2-S11=1.7554        C3-C2=1.3521         C3-C4=1.4320         C3-H15=1.0813        C4-C3=1.4320         C4-C5=1.4340         
C4-C10=1.3982        C5-C4=1.4340         C5-N6=1.3328         C5-C9=1.4256         N6-C5=1.3328         N6-N7=1.3502         
N7-N6=1.3502         N7-C8=1.3568         N7-H16=1.0062        C8-N7=1.3568         C8-C9=1.3639         C8-H17=1.0756        
C9-C5=1.4256         C9-C8=1.3639         C9-H18=1.0702        C10-C4=1.3982        C10-S11=1.7621       S11-C2=1.7554        
S11-C10=1.7621       H12-C1=1.0912        H13-C1=1.0931        H14-C1=1.0935        H15-C3=1.0813        H16-N7=1.0062        
H17-C8=1.0756        H18-C9=1.0702        
 C  H  Rav=1.0842 sigma=0.0091  Rmin=1.0702  Rmax=1.0935     6
 C  C  Rav=1.4138 sigma=0.0437  Rmin=1.3521  Rmax=1.4908     7
 N  H  Rav=1.0062 sigma=0.0000  Rmin=1.0062  Rmax=1.0062     1
 N  C  Rav=1.3448 sigma=0.0120  Rmin=1.3328  Rmax=1.3568     2
 N  N  Rav=1.3502 sigma=0.0000  Rmin=1.3502  Rmax=1.3502     1
 S  C  Rav=1.7588 sigma=0.0034  Rmin=1.7554  Rmax=1.7621     2
 
 selected bond angles (degree)
 --------------------
H12-C1-C2=110.01               H13-C1-C2=111.02               H13-C1-H12=108.57              H14-C1-C2=111.11               
H14-C1-H12=108.52              H14-C1-H13=107.52              C3-C2-C1=129.79                S11-C2-C1=120.88               
S11-C2-C3=109.33               C4-C3-C2=112.99                H15-C3-C2=124.08               H15-C3-C4=122.93               
C5-C4-C3=122.25                C10-C4-C3=117.35               C10-C4-C5=120.40               N6-C5-C4=124.22                
C9-C5-C4=125.99                C9-C5-N6=109.79                N7-N6-C5=105.86                C8-N7-N6=111.95                
H16-N7-N6=119.89               H16-N7-C8=128.16               C9-C8-N7=106.84                H17-C8-N7=121.09               
H17-C8-C9=132.08               C8-C9-C5=105.57                H18-C9-C5=125.60               H18-C9-C8=128.83               
S11-C10-C4=104.89              
 
 selected dihedral angles (degree)
 ---------------------------------
C3-C2-C1-H12=358.01           C3-C2-C1-H13=237.81           C3-C2-C1-H14=118.20           S11-C2-C1-H12=178.17          
S11-C2-C1-H13= 57.97          S11-C2-C1-H14=298.36          C4-C3-C2-C1=180.17            C4-C3-C2-S11=  0.03           
H15-C3-C2-C1=  0.15           H15-C3-C2-S11=180.00          C5-C4-C3-C2=180.05            C5-C4-C3-H15=  0.07           
C10-C4-C3-C2=359.98           C10-C4-C3-H15=180.00          N6-C5-C4-C3=  0.48            N6-C5-C4-C10=180.55           
C9-C5-C4-C3=180.44            C9-C5-C4-C10=  0.52           N7-N6-C5-C4=180.01            N7-N6-C5-C9=  0.04            
C8-N7-N6-C5=359.95            H16-N7-N6-C5=180.16           C9-C8-N7-N6=  0.05            C9-C8-N7-H16=179.81           
H17-C8-N7-N6=180.01           H17-C8-N7-H16=359.78          C8-C9-C5-C4=180.02            C8-C9-C5-N6=  0.00            
H18-C9-C5-C4=  0.05           H18-C9-C5-N6=180.01           C5-C9-C8-N7=  0.00            C5-C9-C8-H17=180.02           
H18-C9-C8-N7=179.95           H18-C9-C8-H17=  0.00          S11-C10-C4-C3=  0.00          S11-C10-C4-C5=179.94          
           -------------------------------------------------
          |                Final Singlepoint                |
           -------------------------------------------------

          ...................................................
          :                      SETUP                      :
          :.................................................:
          :  # basis functions                  57          :
          :  # atomic orbitals                  56          :
          :  # shells                           30          :
          :  # electrons                        56          :
          :  max. iterations                   250          :
          :  Hamiltonian                  GFN2-xTB          :
          :  restarted?                      false          :
          :  GBSA solvation                  false          :
          :  PC potential                    false          :
          :  electronic temp.          300.0000000     K    :
          :  accuracy                    1.0000000          :
          :  -> integral cutoff          0.2500000E+02      :
          :  -> integral neglect         0.1000000E-07      :
          :  -> SCF convergence          0.1000000E-05 Eh   :
          :  -> wf. convergence          0.1000000E-03 e    :
          :  Broyden damping             0.4000000          :
          ...................................................

 iter      E             dE          RMSdq      gap      omega  full diag
   1    -30.3257576 -0.303258E+02  0.122E-04    2.13       0.0  T
   2    -30.3257576  0.366107E-10  0.109E-04    2.13     215.3  T
   3    -30.3257576 -0.204576E-09  0.389E-05    2.13     605.6  T

   *** convergence criteria satisfied after 3 iterations ***

         #    Occupation            Energy/Eh            Energy/eV
      -------------------------------------------------------------
         1        2.0000           -0.5372202             -14.6185
       ...           ...                  ...                  ...
        22        2.0000           -0.2519443              -6.8558
        23        2.0000           -0.2463579              -6.7037
        24        2.0000           -0.2339462              -6.3660
        25        2.0000           -0.2270591              -6.1786
        26        2.0000           -0.1889622              -5.1419
        27        2.0000           -0.1621979              -4.4136
        28        2.0000           -0.1420334              -3.8649 (HOMO)
        29                         -0.0638947              -1.7387 (LUMO)
        30                         -0.0333696              -0.9080
        31                         -0.0152292              -0.4144
        32                          0.0049689               0.1352
        33                          0.0841101               2.2888
       ...                                ...                  ...
        56                          0.8842489              24.0616
      -------------------------------------------------------------
                  HL-Gap            0.0781387 Eh            2.1263 eV
             Fermi-level           -0.1029640 Eh           -2.8018 eV
 
 localization/xTB-IFF output generation
 averaging CT terms over            1  occ. levels
 averaging CT terms over            1  virt. levels
 dipole moment from electron density (au)
     X       Y       Z   
  -1.6922   2.1286   1.2606  total (Debye):    7.619
cpu  time for init local    0.00 s
wall time for init local    0.00 s
 doing rotations ...
 initialization of trafo matrix to unity
iteration     50  convergence  0.15568430D-05

 converged in     53 iterations, threshold :   0.99485929D-06
 doing transformations ...
 lmo centers(Z=2) and atoms on file <lmocent.coord>
 LMO Fii/eV  ncent    charge center   contributions...
    1 sigma -12.79   1.94  -4.73968   1.71232   0.85615    7N :  0.57    6N :  0.43
    2 sigma -12.51   1.92  -6.34500   0.68894   0.26793    7N :  0.59    8C :  0.42
    3 sigma -12.37   1.97  -6.60222   2.48579   1.20091    7N :  0.56   16H :  0.45
    4 sigma -10.96   2.00  -8.01673  -0.66148  -0.82911   17H :  0.51    8C :  0.48
    5 sigma -10.19   1.98   6.74100   2.00381   1.57628   12H :  0.51    1C :  0.50
    6 sigma -10.16   1.98   7.56619  -0.06926   1.70257   14H :  0.50    1C :  0.50
    7 sigma -10.16   1.98   7.70257   1.06217  -0.20779   13H :  0.50    1C :  0.50
    8 sigma -10.16   1.96   5.72558   0.31945   0.50514    1C :  0.54    2C :  0.47
    9 sigma -10.00   2.00  -3.49267  -1.05591  -0.83827    9C :  0.52    5C :  0.48
   10 sigma  -9.68   2.01  -4.44460  -2.83452  -1.99327   18H :  0.50    9C :  0.50
   11 sigma  -9.55   1.96   4.42442  -1.60967  -0.78569   11S :  0.57    2C :  0.43
   12 sigma  -9.42   2.00  -1.23593  -0.53248  -0.40287    5C :  0.54    4C :  0.45
   13 pi     -9.41   2.15  -5.52433  -1.32208  -0.51646    9C :  0.49    8C :  0.47
   14 pi     -9.36   2.17  -5.46193  -0.78112  -1.37811    9C :  0.49    8C :  0.47
   15 pi     -9.28   2.08  -3.07611   0.62506   0.76064    6N :  0.57    5C :  0.40
   16 pi     -9.26   2.09  -3.04102   1.10654  -0.02763    6N :  0.57    5C :  0.40
   17 pi     -9.24   1.53  -5.77512   1.40472   0.34554    7N :  0.80    8C :  0.12
   18 sigma  -9.07   1.99   1.09720  -0.02016   0.04352    3C :  0.53    4C :  0.47
   19 sigma  -8.96   2.01   1.81111   1.84499   1.25907   15H :  0.52    3C :  0.47
   20 LP     -8.43   1.14   4.90633  -2.33147  -4.11865   11S :  0.93
   21 LP     -8.42   1.15   4.69092  -4.94842   0.01778   11S :  0.93
   22 sigma  -8.37   1.78   2.79889  -3.02340  -1.76433   11S :  0.68   10C :  0.32
   23 pi     -8.24   2.08   3.24653  -0.08526   0.74133    2C :  0.51    3C :  0.47
   24 pi     -8.24   2.08   3.29458   0.47919  -0.15205    2C :  0.51    3C :  0.47
   25 LP     -7.43   1.02  -2.56354   3.17073   1.82132    6N :  0.99
   26 delpi  -7.13   2.30   0.40757  -1.82021  -0.58126    4C :  0.55   10C :  0.36
   27 delpi  -7.08   2.33   0.44548  -1.31736  -1.35930    4C :  0.55   10C :  0.36
   28 LP     -5.19   1.08   0.23391  -4.56006  -2.87023   10C :  0.96
 starting deloc pi regularization ...
 thr    2.20000000000000      # pi deloc LMO           5
 files:
 coordprot.0/xtbscreen.xyz/xtblmoinfo/lmocent.coord
 with protonation site input, xtbdock and
 LMO center info written
 

 SCC (total)                   0 d,  0 h,  0 min,  0.033 sec
 SCC setup                      ...        0 min,  0.000 sec (  0.498%)
 Dispersion                     ...        0 min,  0.000 sec (  0.350%)
 classical contributions        ...        0 min,  0.000 sec (  0.109%)
 integral evaluation            ...        0 min,  0.004 sec ( 13.176%)
 iterations                     ...        0 min,  0.004 sec ( 12.269%)
 molecular gradient             ...        0 min,  0.010 sec ( 28.749%)
 printout                       ...        0 min,  0.015 sec ( 44.715%)

         :::::::::::::::::::::::::::::::::::::::::::::::::::::
         ::                     SUMMARY                     ::
         :::::::::::::::::::::::::::::::::::::::::::::::::::::
         :: total energy             -29.908082942911 Eh    ::
         :: gradient norm              0.000554485783 Eh/a0 ::
         :: HOMO-LUMO gap              2.126261425990 eV    ::
         ::.................................................::
         :: SCC energy               -30.325757595952 Eh    ::
         :: -> isotropic ES            0.110308219604 Eh    ::
         :: -> anisotropic ES          0.007922745621 Eh    ::
         :: -> anisotropic XC          0.018348397406 Eh    ::
         :: -> dispersion             -0.018440373344 Eh    ::
         :: repulsion energy           0.417728840604 Eh    ::
         :: add. restraining           0.000000000000 Eh    ::
         :: total charge              -1.000000000000 e     ::
         :::::::::::::::::::::::::::::::::::::::::::::::::::::

           -------------------------------------------------
          |                Property Printout                |
           -------------------------------------------------

    * Orbital Energies and Occupations

         #    Occupation            Energy/Eh            Energy/eV
      -------------------------------------------------------------
         1        2.0000           -0.5372202             -14.6185
       ...           ...                  ...                  ...
        16        2.0000           -0.3257631              -8.8645
        17        2.0000           -0.3237387              -8.8094
        18        2.0000           -0.3177761              -8.6471
        19        2.0000           -0.2756004              -7.4995
        20        2.0000           -0.2665851              -7.2541
        21        2.0000           -0.2616146              -7.1189
        22        2.0000           -0.2519443              -6.8558
        23        2.0000           -0.2463579              -6.7037
        24        2.0000           -0.2339462              -6.3660
        25        2.0000           -0.2270591              -6.1786
        26        2.0000           -0.1889622              -5.1419
        27        2.0000           -0.1621979              -4.4136
        28        2.0000           -0.1420334              -3.8649 (HOMO)
        29                         -0.0638947              -1.7387 (LUMO)
        30                         -0.0333696              -0.9080
        31                         -0.0152292              -0.4144
        32                          0.0049689               0.1352
        33                          0.0841101               2.2888
        34                          0.0859744               2.3395
        35                          0.1458439               3.9686
        36                          0.1964495               5.3457
        37                          0.2098148               5.7094
        38                          0.2287252               6.2239
        39                          0.2490946               6.7782
       ...                                ...                  ...
        56                          0.8842489              24.0616
      -------------------------------------------------------------
                  HL-Gap            0.0781387 Eh            2.1263 eV
             Fermi-level           -0.1029640 Eh           -2.8018 eV

     #   Z          covCN         q      C6AA      α(0)
     1   6 C        3.769    -0.076    21.984     6.682
     2   6 C        2.975     0.006    27.883     8.662
     3   6 C        3.100    -0.062    29.414     8.888
     4   6 C        3.224    -0.043    28.285     8.643
     5   6 C        3.130     0.071    26.214     8.382
     6   7 N        1.982    -0.291    28.354     7.897
     7   7 N        2.971    -0.038    21.970     6.962
     8   6 C        2.982    -0.015    28.391     8.740
     9   6 C        3.018    -0.083    30.048     8.992
    10   6 C        1.974    -0.233    37.958     9.950
    11  16 S        2.398    -0.328   155.348    20.978
    12   1 H        0.924     0.001     3.045     2.729
    13   1 H        0.924     0.008     2.915     2.670
    14   1 H        0.924     0.008     2.929     2.677
    15   1 H        0.925    -0.035     3.746     3.027
    16   1 H        0.860     0.117     1.648     2.011
    17   1 H        0.926    -0.018     3.387     2.878
    18   1 H        0.927     0.011     2.870     2.649

 Mol. C6AA /au·bohr⁶  :       5943.523817
 Mol. C8AA /au·bohr⁸  :     164300.120252
 Mol. α(0) /au        :        123.413785


Wiberg/Mayer (AO) data.
largest (>0.10) Wiberg bond orders for each atom

 ---------------------------------------------------------------------------
     #   Z sym  total        # sym  WBO       # sym  WBO       # sym  WBO
 ---------------------------------------------------------------------------
     1   6 C    3.994 --     2 C    1.022    12 H    0.984    13 H    0.979
                            14 H    0.979
     2   6 C    3.934 --     3 C    1.644    11 S    1.091     1 C    1.022
                            10 C    0.109
     3   6 C    3.979 --     2 C    1.644     4 C    1.193    15 H    0.962
     4   6 C    3.955 --    10 C    1.485     3 C    1.193     5 C    1.124
     5   6 C    3.964 --     6 N    1.438     9 C    1.249     4 C    1.124
     6   7 N    2.910 --     5 C    1.438     7 N    1.147     8 C    0.156
     7   7 N    3.551 --     8 C    1.233     6 N    1.147    16 H    0.956
                             9 C    0.102
     8   6 C    3.948 --     9 C    1.570     7 N    1.233    17 H    0.968
                             6 N    0.156
     9   6 C    3.976 --     8 C    1.570     5 C    1.249    18 H    0.975
                             7 N    0.102
    10   6 C    2.978 --     4 C    1.485    11 S    1.223     2 C    0.109
    11  16 S    2.519 --    10 C    1.223     2 C    1.091
    12   1 H    1.000 --     1 C    0.984
    13   1 H    0.999 --     1 C    0.979
    14   1 H    0.999 --     1 C    0.979
    15   1 H    0.999 --     3 C    0.962
    16   1 H    0.986 --     7 N    0.956
    17   1 H    0.999 --     8 C    0.968
    18   1 H    1.000 --     9 C    0.975
 ---------------------------------------------------------------------------

Topologies differ in total number of bonds
Writing topology from bond orders to xtbtopo.mol

molecular dipole:
                 x           y           z       tot (Debye)
 q only:       -1.352       1.417       0.826
   full:       -1.692       2.129       1.261       7.618
molecular quadrupole (traceless):
                xx          xy          yy          xz          yz          zz
 q only:       -7.142       4.861       0.964       2.214      -4.933       6.177
  q+dip:        1.071       6.439      -4.140       3.774      -6.845       3.070
   full:        0.268       6.798      -4.445       3.853      -8.261       4.177

           -------------------------------------------------
          |                Geometry Summary                 |
           -------------------------------------------------

      molecular mass/u    :      163.2196663
   center of mass at/Å    :        0.0584581      -0.3330380      -0.2088762
  moments of inertia/u·Å² :        0.1769863E+03   0.9370296E+03   0.1110874E+04
rotational constants/cm⁻¹ :        0.9524824E-01   0.1799050E-01   0.1517510E-01

 * 16 selected distances

     #   Z          #   Z                                           value/Å
     2   6 C        3   6 C                                       1.3520792
     3   6 C        4   6 C                                       1.4319665
     4   6 C        5   6 C                                       1.4340297
     5   6 C        6   7 N                                       1.3328196
     6   7 N        7   7 N                                       1.3502463
     7   7 N        8   6 C                                       1.3568036
     5   6 C        9   6 C                                       1.4256227
     8   6 C        9   6 C                                       1.3638819
     2   6 C       11  16 S                                       1.7554133 (max)
     1   6 C       12   1 H                                       1.0912024
     1   6 C       13   1 H                                       1.0931298
     1   6 C       14   1 H                                       1.0935157
     3   6 C       15   1 H                                       1.0813311
     7   7 N       16   1 H                                       1.0061985 (min)
     8   6 C       17   1 H                                       1.0756118
     9   6 C       18   1 H                                       1.0702350

 * 6 distinct bonds (by element types)

   Z      Z             #   av. dist./Å        max./Å        min./Å
   1 H    6 C           6     1.0841710     1.0935157     1.0702350
   6 C    6 C           5     1.4015160     1.4340297     1.3520792
   1 H    7 N           1     1.0061985     1.0061985     1.0061985
   6 C    7 N           2     1.3448116     1.3568036     1.3328196
   7 N    7 N           1     1.3502463     1.3502463     1.3502463
   6 C   16 S           1     1.7554133     1.7554133     1.7554133


optimized geometry written to: xtbopt.xyz


           -------------------------------------------------
          | TOTAL ENERGY              -29.908082942911 Eh   |
          | GRADIENT NORM               0.000554485783 Eh/α |
          | HOMO-LUMO GAP               2.126261425990 eV   |
           -------------------------------------------------

------------------------------------------------------------------------
 * finished run on 2022/11/02 at 18:13:41.680     
------------------------------------------------------------------------
 total:
 * wall-time:     0 d,  0 h,  0 min,  0.957 sec
 *  cpu-time:     0 d,  0 h,  0 min,  0.774 sec
 * ratio c/w:     0.809 speedup
 SCF:
 * wall-time:     0 d,  0 h,  0 min,  0.077 sec
 *  cpu-time:     0 d,  0 h,  0 min,  0.043 sec
 * ratio c/w:     0.563 speedup
 ANC optimizer:
 * wall-time:     0 d,  0 h,  0 min,  0.727 sec
 *  cpu-time:     0 d,  0 h,  0 min,  0.698 sec
 * ratio c/w:     0.961 speedup

