      -----------------------------------------------------------      
     |                   =====================                   |     
     |                           x T B                           |     
     |                   =====================                   |     
     |                         S. Grimme                         |     
     |          Mulliken Center for Theoretical Chemistry        |     
     |                    University of Bonn                     |     
      -----------------------------------------------------------      

   * xtb version 6.4.1 (afa7bdf) compiled by 'ehlert@majestix' on 2021-06-10

   xtb is free software: you can redistribute it and/or modify it under
   the terms of the GNU Lesser General Public License as published by
   the Free Software Foundation, either version 3 of the License, or
   (at your option) any later version.
   
   xtb is distributed in the hope that it will be useful,
   but WITHOUT ANY WARRANTY; without even the implied warranty of
   MERCHANTABILITY or FITNESS FOR A PARTICULAR PURPOSE.  See the
   GNU Lesser General Public License for more details.
   
   Cite this work as:
   * C. Bannwarth, E. Caldeweyher, S. Ehlert, A. Hansen, P. Pracht,
     J. Seibert, S. Spicher, S. Grimme, WIREs Comput. Mol. Sci., 2020, 11,
     e01493. DOI: 10.1002/wcms.1493
   
   for GFN2-xTB:
   * C. Bannwarth, S. Ehlert and S. Grimme., J. Chem. Theory Comput., 2019,
     15, 1652-1671. DOI: 10.1021/acs.jctc.8b01176
   for GFN1-xTB:
   * S. Grimme, C. Bannwarth, P. Shushkov, J. Chem. Theory Comput., 2017,
     13, 1989-2009. DOI: 10.1021/acs.jctc.7b00118
   for GFN0-xTB:
   * P. Pracht, E. Caldeweyher, S. Ehlert, S. Grimme, ChemRxiv, 2019, preprint.
     DOI: 10.26434/chemrxiv.8326202.v1
   for GFN-FF:
   * S. Spicher and S. Grimme, Angew. Chem. Int. Ed., 2020, 59, 15665-15673.
     DOI: 10.1002/anie.202004239
   
   for DFT-D4:
   * E. Caldeweyher, C. Bannwarth and S. Grimme, J. Chem. Phys., 2017,
     147, 034112. DOI: 10.1063/1.4993215
   * E. Caldeweyher, S. Ehlert, A. Hansen, H. Neugebauer, S. Spicher,
     C. Bannwarth and S. Grimme, J. Chem. Phys., 2019, 150, 154122.
     DOI: 10.1063/1.5090222
   * E. Caldeweyher, J.-M. Mewes, S. Ehlert and S. Grimme, Phys. Chem. Chem. Phys.
     2020, 22, 8499-8512. DOI: 10.1039/D0CP00502A
   
   for sTDA-xTB:
   * S. Grimme and C. Bannwarth, J. Chem. Phys., 2016, 145, 054103.
     DOI: 10.1063/1.4959605
   
   in the mass-spec context:
   * V. Asgeirsson, C. Bauer and S. Grimme, Chem. Sci., 2017, 8, 4879.
     DOI: 10.1039/c7sc00601b
   * J. Koopman and S. Grimme, ACS Omega 2019, 4, 12, 15120-15133.
     DOI: 10.1021/acsomega.9b02011
   
   for metadynamics refer to:
   * S. Grimme, J. Chem. Theory Comput., 2019, 155, 2847-2862
     DOI: 10.1021/acs.jctc.9b00143
   
   for SPH calculations refer to:
   * S. Spicher and S. Grimme, J. Chem. Theory Comput., 2021, 17, 1701-1714
     DOI: 10.1021/acs.jctc.0c01306
   
   with help from (in alphabetical order)
   P. Atkinson, C. Bannwarth, F. Bohle, G. Brandenburg, E. Caldeweyher
   M. Checinski, S. Dohm, S. Ehlert, S. Ehrlich, I. Gerasimov, J. Koopman
   C. Lavigne, S. Lehtola, F. März, M. Müller, F. Musil, H. Neugebauer
   J. Pisarek, C. Plett, P. Pracht, J. Seibert, P. Shushkov, S. Spicher
   M. Stahn, M. Steiner, T. Strunk, J. Stückrath, T. Rose, and J. Unsleber
   
 * started run on 2022/11/02 at 18:13:40.736     

           -------------------------------------------------
          |                Calculation Setup                |
           -------------------------------------------------

          program call               : /lustre/hpc/kemi/borup/pKalculator/dep/xtb-6.4.1/bin/xtb --gfn 2 /lustre/hpc/kemi/borup/pKalculator/calc/test#-1=7/conf04/test#-1=7_conf04_gfn2.xyz --opt --lmo --chrg -1 --uhf 0
          hostname                   : fend01.cluster
          coordinate file            : /lustre/hpc/kemi/borup/pKalculator/calc/test#-1=7/conf04/test#-1=7_conf04_gfn2.xyz
          omp threads                :                     1
          number of atoms            :                    18
          number of electrons        :                    56
          charge                     :                    -1
          spin                       :                   0.0
          first test random number   :      0.00012733368707

   ID    Z sym.   atoms
    1    6 C      1-5, 8-10
    2    7 N      6, 7
    3   16 S      11
    4    1 H      12-18

           -------------------------------------------------
          |                 G F N 2 - x T B                 |
           -------------------------------------------------

        Reference                      10.1021/acs.jctc.8b01176
      * Hamiltonian:
        H0-scaling (s, p, d)           1.850000    2.230000    2.230000
        zeta-weighting                 0.500000
      * Dispersion:
        s8                             2.700000
        a1                             0.520000
        a2                             5.000000
        s9                             5.000000
      * Repulsion:
        kExp                           1.500000    1.000000
        rExp                           1.000000
      * Coulomb:
        alpha                          2.000000
        third order                    shell-resolved
        anisotropic                    true
        a3                             3.000000
        a5                             4.000000
        cn-shift                       1.200000
        cn-exp                         4.000000
        max-rad                        5.000000


          ...................................................
          :                      SETUP                      :
          :.................................................:
          :  # basis functions                  57          :
          :  # atomic orbitals                  56          :
          :  # shells                           30          :
          :  # electrons                        56          :
          :  max. iterations                   250          :
          :  Hamiltonian                  GFN2-xTB          :
          :  restarted?                      false          :
          :  GBSA solvation                  false          :
          :  PC potential                    false          :
          :  electronic temp.          300.0000000     K    :
          :  accuracy                    1.0000000          :
          :  -> integral cutoff          0.2500000E+02      :
          :  -> integral neglect         0.1000000E-07      :
          :  -> SCF convergence          0.1000000E-05 Eh   :
          :  -> wf. convergence          0.1000000E-03 e    :
          :  Broyden damping             0.4000000          :
          ...................................................

 iter      E             dE          RMSdq      gap      omega  full diag
   1    -30.1521265 -0.301521E+02  0.431E+00    3.06       0.0  T
   2    -30.2282893 -0.761627E-01  0.388E+00    0.61       1.0  T
   3    -30.3084186 -0.801293E-01  0.191E+00    1.43       1.0  T
   4    -30.3054994  0.291919E-02  0.904E-01    1.14       1.0  T
   5    -30.3104109 -0.491150E-02  0.328E-01    1.20       1.0  T
   6    -30.3113329 -0.922038E-03  0.121E-01    1.32       1.0  T
   7    -30.3114113 -0.783856E-04  0.483E-02    1.29       1.0  T
   8    -30.3114156 -0.431437E-05  0.247E-02    1.30       1.0  T
   9    -30.3114195 -0.382950E-05  0.117E-02    1.30       2.0  T
  10    -30.3114198 -0.365816E-06  0.380E-03    1.30       6.2  T
  11    -30.3114199 -0.934743E-07  0.206E-03    1.30      11.4  T
  12    -30.3114199 -0.965205E-08  0.811E-04    1.30      29.1  T
  13    -30.3114199 -0.503758E-08  0.248E-04    1.30      95.2  T

   *** convergence criteria satisfied after 13 iterations ***

         #    Occupation            Energy/Eh            Energy/eV
      -------------------------------------------------------------
         1        2.0000           -0.5398096             -14.6890
       ...           ...                  ...                  ...
        22        2.0000           -0.2575941              -7.0095
        23        2.0000           -0.2448624              -6.6630
        24        2.0000           -0.2388273              -6.4988
        25        2.0000           -0.2355365              -6.4093
        26        2.0000           -0.1872162              -5.0944
        27        2.0000           -0.1619729              -4.4075
        28        2.0000           -0.1156586              -3.1472 (HOMO)
        29                         -0.0679526              -1.8491 (LUMO)
        30                         -0.0246360              -0.6704
        31                         -0.0148519              -0.4041
        32                         -0.0013543              -0.0369
        33                          0.0856262               2.3300
       ...                                ...                  ...
        56                          0.9119150              24.8145
      -------------------------------------------------------------
                  HL-Gap            0.0477060 Eh            1.2981 eV
             Fermi-level           -0.0918056 Eh           -2.4982 eV
 
 localization/xTB-IFF output generation
 averaging CT terms over            1  occ. levels
 averaging CT terms over            1  virt. levels
 dipole moment from electron density (au)
     X       Y       Z   
   1.2938   2.5478   1.2899  total (Debye):    7.969
cpu  time for init local    0.01 s
wall time for init local    0.01 s
 doing rotations ...
 initialization of trafo matrix to unity

 converged in     47 iterations, threshold :   0.98580850D-06
 doing transformations ...
 lmo centers(Z=2) and atoms on file <lmocent.coord>
 LMO Fii/eV  ncent    charge center   contributions...
    1 sigma -13.03   1.95   4.26371   2.72957   0.67914    7N :  0.57    6N :  0.44
    2 sigma -12.54   1.92   6.12230   1.96161   0.32127    7N :  0.58    8C :  0.43
    3 sigma -12.35   1.97   5.94193   3.87248   1.09281    7N :  0.55   16H :  0.45
    4 sigma -10.99   2.01   8.13123   0.66659  -0.25240   17H :  0.51    8C :  0.49
    5 sigma -10.11   1.98  -7.08824   0.95396   0.24551   13H :  0.51    1C :  0.50
    6 sigma -10.10   1.98  -7.64553  -1.17466   0.62856   12H :  0.51    1C :  0.50
    7 sigma -10.09   1.98  -7.70415  -0.36288  -1.44992   14H :  0.51    1C :  0.50
    8 sigma -10.09   2.00   3.75813  -0.46114  -0.58778    9C :  0.52    5C :  0.48
    9 sigma -10.08   1.96  -5.75628  -0.72287  -0.44704    1C :  0.54    2C :  0.47
   10 sigma  -9.74   2.01   5.14406  -2.19147  -1.31934   18H :  0.50    9C :  0.50
   11 pi     -9.47   2.15   5.73127   0.09092  -0.96647    9C :  0.49    8C :  0.48
   12 pi     -9.47   2.15   5.75655  -0.28721  -0.02426    9C :  0.49    8C :  0.48
   13 pi     -9.39   2.10   2.84941   1.66754  -0.20875    6N :  0.56    5C :  0.40
   14 sigma  -9.39   1.96  -4.04510  -2.64230  -1.25838   11S :  0.57    2C :  0.43
   15 pi     -9.38   2.10   2.87241   1.32245   0.65119    6N :  0.56    5C :  0.40
   16 sigma  -9.24   2.00   1.38853  -0.34131  -0.47625    5C :  0.55    4C :  0.45
   17 pi     -9.14   1.51   5.34786   2.48894   0.55308    7N :  0.81    8C :  0.10
   18 sigma  -8.85   2.01  -2.35412   1.58122   0.38853   15H :  0.52    3C :  0.47
   19 sigma  -8.79   1.98  -1.11051  -0.24820  -0.37466    3C :  0.54    4C :  0.47
   20 LP     -8.44   1.14  -3.73164  -5.79434   0.13769   11S :  0.94
   21 LP     -8.44   1.14  -3.84787  -3.95615  -4.45482   11S :  0.93
   22 sigma  -8.42   1.81  -2.08879  -3.73683  -1.74593   11S :  0.66   10C :  0.33
   23 pi     -8.06   2.06  -3.33614  -0.66185   0.08736    2C :  0.51    3C :  0.47
   24 pi     -8.06   2.07  -3.36104  -0.26809  -0.89703    2C :  0.51    3C :  0.47
   25 LP     -7.60   1.02   1.81350   3.87115   1.20281    6N :  0.99
   26 delpi  -7.11   2.28  -0.13011  -1.58071  -1.45247    4C :  0.55   10C :  0.37
   27 delpi  -7.11   2.28  -0.10693  -1.93858  -0.55724    4C :  0.55   10C :  0.37
   28 LP     -4.53   1.11   0.69507  -4.85104  -2.26265   10C :  0.95
 starting deloc pi regularization ...
 thr    2.20000000000000      # pi deloc LMO           5
 files:
 coordprot.0/xtbscreen.xyz/xtblmoinfo/lmocent.coord
 with protonation site input, xtbdock and
 LMO center info written
 

 SCC (total)                   0 d,  0 h,  0 min,  0.049 sec
 SCC setup                      ...        0 min,  0.000 sec (  0.673%)
 Dispersion                     ...        0 min,  0.000 sec (  0.491%)
 classical contributions        ...        0 min,  0.000 sec (  0.123%)
 integral evaluation            ...        0 min,  0.005 sec (  9.567%)
 iterations                     ...        0 min,  0.015 sec ( 31.542%)
 molecular gradient             ...        0 min,  0.010 sec ( 20.283%)
 printout                       ...        0 min,  0.018 sec ( 37.209%)

         :::::::::::::::::::::::::::::::::::::::::::::::::::::
         ::                     SUMMARY                     ::
         :::::::::::::::::::::::::::::::::::::::::::::::::::::
         :: total energy             -29.892691588173 Eh    ::
         :: gradient norm              0.122980384104 Eh/a0 ::
         :: HOMO-LUMO gap              1.298145958717 eV    ::
         ::.................................................::
         :: SCC energy               -30.311419932178 Eh    ::
         :: -> isotropic ES            0.112133553738 Eh    ::
         :: -> anisotropic ES          0.009892110510 Eh    ::
         :: -> anisotropic XC          0.018110499982 Eh    ::
         :: -> dispersion             -0.018303292416 Eh    ::
         :: repulsion energy           0.418783924703 Eh    ::
         :: add. restraining           0.000000000000 Eh    ::
         :: total charge              -1.000000000000 e     ::
         :::::::::::::::::::::::::::::::::::::::::::::::::::::

      ----------------------------------------------------------- 
     |                   =====================                   |
     |                        A N C O P T                        |
     |                   =====================                   |
     |               Approximate Normal Coordinate               |
     |                Rational Function Optimizer                |
      ----------------------------------------------------------- 

          ...................................................
          :                      SETUP                      :
          :.................................................:
          :   optimization level            normal          :
          :   max. optcycles                   200          :
          :   ANC micro-cycles                  20          :
          :   degrees of freedom                48          :
          :.................................................:
          :   RF solver                   davidson          :
          :   write xtbopt.log                true          :
          :   linear?                        false          :
          :   energy convergence         0.5000000E-05 Eh   :
          :   grad. convergence          0.1000000E-02 Eh/α :
          :   maximium RF displ.         1.0000000          :
          :   Hlow (freq-cutoff)         0.1000000E-01      :
          :   Hmax (freq-cutoff)         5.0000000          :
          :   S6 in model hess.         20.0000000          :
          ...................................................

generating ANC from model Hessian ...
Using Lindh-Hessian (1995)
 Shifting diagonal of input Hessian by   8.261010008717181E-003
 Lowest  eigenvalues of input Hessian
    0.000000    0.000000    0.000000    0.000000    0.000000    0.000000
    0.010000    0.011677    0.012893    0.017496    0.018304    0.030242
    0.030650    0.037989    0.039817    0.043422    0.067424    0.072941
 Highest eigenvalues
    1.753899    1.761315    1.846788    1.940936    1.982575    2.061761
 

........................................................................
.............................. CYCLE    1 ..............................
........................................................................
   1    -30.3114199 -0.303114E+02  0.987E-05    1.30       0.0  T
   2    -30.3114199 -0.324292E-10  0.591E-05    1.30     399.0  T
   3    -30.3114199 -0.464695E-11  0.382E-05    1.30     616.6  T
     SCC iter.                  ...        0 min,  0.004 sec
     gradient                   ...        0 min,  0.009 sec
 * total energy  :   -29.8926916 Eh     change       -0.1947775E-09 Eh
   gradient norm :     0.1229784 Eh/α   predicted     0.0000000E+00 (-100.00%)
   displ. norm   :     0.2515194 α      lambda       -0.1881327E-01
   maximum displ.:     0.1217085 α      in ANC's #27, #15, #9, ...

........................................................................
.............................. CYCLE    2 ..............................
........................................................................
   1    -30.3208907 -0.303209E+02  0.483E-01    1.74       0.0  T
   2    -30.3211014 -0.210713E-03  0.261E-01    1.89       1.0  T
   3    -30.3209853  0.116137E-03  0.204E-01    1.78       1.0  T
   4    -30.3212738 -0.288562E-03  0.651E-02    1.86       1.0  T
   5    -30.3213025 -0.286102E-04  0.376E-02    1.85       1.0  T
   6    -30.3213067 -0.425124E-05  0.149E-02    1.85       1.6  T
   7    -30.3213084 -0.167378E-05  0.704E-03    1.85       3.3  T
   8    -30.3213085 -0.156649E-06  0.351E-03    1.85       6.7  T
   9    -30.3213086 -0.811169E-07  0.780E-04    1.85      30.2  T
  10    -30.3213086 -0.278272E-08  0.453E-04    1.85      52.0  T
     SCC iter.                  ...        0 min,  0.011 sec
     gradient                   ...        0 min,  0.009 sec
 * total energy  :   -29.9052419 Eh     change       -0.1255027E-01 Eh
   gradient norm :     0.0494720 Eh/α   predicted    -0.1000172E-01 ( -20.31%)
   displ. norm   :     0.1793482 α      lambda       -0.4373781E-02
   maximum displ.:     0.1281598 α      in ANC's #9, #17, #15, ...

........................................................................
.............................. CYCLE    3 ..............................
........................................................................
   1    -30.3258432 -0.303258E+02  0.247E-01    2.05       0.0  T
   2    -30.3259417 -0.984577E-04  0.140E-01    2.13       1.0  T
   3    -30.3259428 -0.114044E-05  0.105E-01    2.09       1.0  T
   4    -30.3259827 -0.398430E-04  0.446E-02    2.13       1.0  T
   5    -30.3260090 -0.263018E-04  0.206E-02    2.11       1.1  T
   6    -30.3260098 -0.800872E-06  0.863E-03    2.12       2.7  T
   7    -30.3260101 -0.349868E-06  0.370E-03    2.12       6.4  T
   8    -30.3260102 -0.292379E-07  0.209E-03    2.12      11.3  T
   9    -30.3260102 -0.363872E-07  0.515E-04    2.12      45.8  T
  10    -30.3260102 -0.159591E-08  0.299E-04    2.12      78.8  T
     SCC iter.                  ...        0 min,  0.011 sec
     gradient                   ...        0 min,  0.010 sec
 * total energy  :   -29.9077310 Eh     change       -0.2489122E-02 Eh
   gradient norm :     0.0148176 Eh/α   predicted    -0.2257231E-02 (  -9.32%)
   displ. norm   :     0.0605471 α      lambda       -0.3673594E-03
   maximum displ.:     0.0449964 α      in ANC's #9, #6, #17, ...

........................................................................
.............................. CYCLE    4 ..............................
........................................................................
   1    -30.3259370 -0.303259E+02  0.589E-02    2.14       0.0  T
   2    -30.3259423 -0.532329E-05  0.351E-02    2.14       1.0  T
   3    -30.3259408  0.155838E-05  0.197E-02    2.14       1.2  T
   4    -30.3259435 -0.275514E-05  0.108E-02    2.14       2.2  T
   5    -30.3259448 -0.123390E-05  0.394E-03    2.14       6.0  T
   6    -30.3259448 -0.272761E-07  0.226E-03    2.14      10.4  T
   7    -30.3259448 -0.133444E-07  0.713E-04    2.14      33.1  T
   8    -30.3259448 -0.194651E-08  0.292E-04    2.14      80.7  T
     SCC iter.                  ...        0 min,  0.009 sec
     gradient                   ...        0 min,  0.010 sec
 * total energy  :   -29.9079831 Eh     change       -0.2521133E-03 Eh
   gradient norm :     0.0082808 Eh/α   predicted    -0.1843551E-03 ( -26.88%)
   displ. norm   :     0.0426820 α      lambda       -0.1433097E-03
   maximum displ.:     0.0271849 α      in ANC's #6, #9, #17, ...

........................................................................
.............................. CYCLE    5 ..............................
........................................................................
   1    -30.3255363 -0.303255E+02  0.474E-02    2.14       0.0  T
   2    -30.3255382 -0.186855E-05  0.296E-02    2.12       1.0  T
   3    -30.3255370  0.119293E-05  0.209E-02    2.14       1.1  T
   4    -30.3255424 -0.543097E-05  0.629E-03    2.13       3.7  T
   5    -30.3255427 -0.257687E-06  0.219E-03    2.13      10.8  T
   6    -30.3255427 -0.173625E-07  0.130E-03    2.13      18.2  T
   7    -30.3255427 -0.410217E-08  0.617E-04    2.13      38.2  T
   8    -30.3255427 -0.146877E-08  0.287E-04    2.13      82.1  T
     SCC iter.                  ...        0 min,  0.009 sec
     gradient                   ...        0 min,  0.009 sec
 * total energy  :   -29.9080674 Eh     change       -0.8432563E-04 Eh
   gradient norm :     0.0042869 Eh/α   predicted    -0.7178339E-04 ( -14.87%)
   displ. norm   :     0.0093000 α      lambda       -0.1816295E-04
   maximum displ.:     0.0046263 α      in ANC's #6, #20, #17, ...

........................................................................
.............................. CYCLE    6 ..............................
........................................................................
   1    -30.3255455 -0.303255E+02  0.167E-02    2.13       0.0  T
   2    -30.3255457 -0.171214E-06  0.102E-02    2.12       2.3  T
   3    -30.3255461 -0.369744E-06  0.701E-03    2.13       3.4  T
   4    -30.3255466 -0.552850E-06  0.182E-03    2.12      12.9  T
   5    -30.3255466 -0.133738E-07  0.757E-04    2.12      31.1  T
   6    -30.3255466 -0.508687E-08  0.317E-04    2.12      74.3  T
     SCC iter.                  ...        0 min,  0.007 sec
     gradient                   ...        0 min,  0.009 sec
 * total energy  :   -29.9080799 Eh     change       -0.1245606E-04 Eh
   gradient norm :     0.0023160 Eh/α   predicted    -0.9081538E-05 ( -27.09%)
   displ. norm   :     0.0062888 α      lambda       -0.7657940E-05
   maximum displ.:     0.0026277 α      in ANC's #3, #6, #20, ...

........................................................................
.............................. CYCLE    7 ..............................
........................................................................
   1    -30.3256328 -0.303256E+02  0.114E-02    2.12       0.0  T
   2    -30.3256329 -0.138838E-06  0.634E-03    2.12       3.7  T
   3    -30.3256330 -0.702861E-07  0.477E-03    2.12       4.9  T
   4    -30.3256333 -0.260959E-06  0.126E-03    2.12      18.7  T
   5    -30.3256333 -0.798264E-08  0.531E-04    2.12      44.4  T
   6    -30.3256333 -0.252043E-08  0.223E-04    2.12     105.6  T
     SCC iter.                  ...        0 min,  0.007 sec
     gradient                   ...        0 min,  0.009 sec
 * total energy  :   -29.9080845 Eh     change       -0.4649534E-05 Eh
   gradient norm :     0.0007094 Eh/α   predicted    -0.3828185E-05 ( -17.67%)
   displ. norm   :     0.0073764 α      lambda       -0.1264427E-05
   maximum displ.:     0.0060124 α      in ANC's #6, #3, #9, ...

   *** GEOMETRY OPTIMIZATION CONVERGED AFTER 7 ITERATIONS ***

------------------------------------------------------------------------
 total energy gain   :        -0.0153929 Eh       -9.6592 kcal/mol
 total RMSD          :         0.1107644 a0        0.0586 Å
 total power (kW/mol):        -5.7734486 (step) -240.4546 (real)
------------------------------------------------------------------------

 ANCopt (total)                0 d,  0 h,  0 min,  0.168 sec
 optimizer setup                ...        0 min,  0.000 sec (  0.280%)
 model hessian                  ...        0 min,  0.003 sec (  1.635%)
 ANC generation                 ...        0 min,  0.001 sec (  0.431%)
 coordinate transformation      ...        0 min,  0.000 sec (  0.064%)
 single point calculation       ...        0 min,  0.160 sec ( 95.013%)
 optimization log               ...        0 min,  0.002 sec (  1.284%)
 hessian update                 ...        0 min,  0.000 sec (  0.059%)
 rational function              ...        0 min,  0.001 sec (  0.881%)

================
 final structure:
================
18
 xtb: 6.4.1 (afa7bdf)
C        -3.71607904761320   -0.17556721235429   -0.13639650791474
C        -2.27883376877236   -0.52909159194038   -0.31493432187487
C        -1.16899478247507    0.19737129570819   -0.05274481194457
C         0.04238374287624   -0.50037650402673   -0.36288224833169
C         1.33550631127007    0.08659056690275   -0.16144027023016
N         1.53306597272303    1.31179854855847    0.32461876704368
N         2.87191014819574    1.48368995497994    0.35837930334904
C         3.53531489105895    0.39105508549757   -0.09712779411786
C         2.58998744465060   -0.52971653465811   -0.44148396058817
C        -0.07636775310530   -1.79503238481666   -0.87757332465485
S        -1.81074834306695   -2.09545252355395   -0.95319033661425
H        -4.20783971593148   -0.86629472466532    0.55441107182410
H        -3.80616982665437    0.83635064119231    0.26249534625611
H        -4.25336906966960   -0.22331392513954   -1.08769450356767
H        -1.18225124396953    1.20127507117433    0.34896114578516
H         3.25719647975526    2.34995750352220    0.69564648532343
H         4.61005508877441    0.37069277575249   -0.13356030862984
H         2.72523247195355   -1.51393604213326   -0.83967373111282
 
 Bond Distances (Angstroems)
 ---------------------------
C1-C2=1.4908         C1-H12=1.0937        C1-H13=1.0914        C1-H14=1.0936        C2-C1=1.4908         C2-C3=1.3521         
C2-S11=1.7550        C3-C2=1.3521         C3-C4=1.4319         C3-H15=1.0814        C4-C3=1.4319         C4-C5=1.4343         
C4-C10=1.3983        C5-C4=1.4343         C5-N6=1.3328         C5-C9=1.4255         N6-C5=1.3328         N6-N7=1.3503         
N7-N6=1.3503         N7-C8=1.3570         N7-H16=1.0063        C8-N7=1.3570         C8-C9=1.3638         C8-H17=1.0756        
C9-C5=1.4255         C9-C8=1.3638         C9-H18=1.0703        C10-C4=1.3983        C10-S11=1.7618       S11-C2=1.7550        
S11-C10=1.7618       H12-C1=1.0937        H13-C1=1.0914        H14-C1=1.0936        H15-C3=1.0814        H16-N7=1.0063        
H17-C8=1.0756        H18-C9=1.0703        
 C  H  Rav=1.0843 sigma=0.0092  Rmin=1.0703  Rmax=1.0937     6
 C  C  Rav=1.4138 sigma=0.0437  Rmin=1.3521  Rmax=1.4908     7
 N  H  Rav=1.0063 sigma=0.0000  Rmin=1.0063  Rmax=1.0063     1
 N  C  Rav=1.3449 sigma=0.0121  Rmin=1.3328  Rmax=1.3570     2
 N  N  Rav=1.3503 sigma=0.0000  Rmin=1.3503  Rmax=1.3503     1
 S  C  Rav=1.7584 sigma=0.0034  Rmin=1.7550  Rmax=1.7618     2
 
 selected bond angles (degree)
 --------------------
H12-C1-C2=111.06               H13-C1-C2=110.07               H13-C1-H12=108.52              H14-C1-C2=111.05               
H14-C1-H12=107.52              H14-C1-H13=108.53              C3-C2-C1=129.84                S11-C2-C1=120.82               
S11-C2-C3=109.34               C4-C3-C2=112.99                H15-C3-C2=124.11               H15-C3-C4=122.90               
C5-C4-C3=122.20                C10-C4-C3=117.33               C10-C4-C5=120.48               N6-C5-C4=124.13                
C9-C5-C4=126.08                C9-C5-N6=109.79                N7-N6-C5=105.85                C8-N7-N6=111.95                
H16-N7-N6=119.84               H16-N7-C8=128.20               C9-C8-N7=106.83                H17-C8-N7=121.01               
H17-C8-C9=132.17               C8-C9-C5=105.57                H18-C9-C5=125.58               H18-C9-C8=128.84               
S11-C10-C4=104.91              
 
 selected dihedral angles (degree)
 ---------------------------------
C3-C2-C1-H12=240.24           C3-C2-C1-H13=  0.44           C3-C2-C1-H14=120.65           S11-C2-C1-H12= 60.21          
S11-C2-C1-H13=180.41          S11-C2-C1-H14=300.62          C4-C3-C2-C1=179.99            C4-C3-C2-S11=  0.00           
H15-C3-C2-C1=359.97           H15-C3-C2-S11=180.00          C5-C4-C3-C2=179.99            C5-C4-C3-H15=  0.00           
C10-C4-C3-C2=  0.00           C10-C4-C3-H15=180.01          N6-C5-C4-C3=  0.06            N6-C5-C4-C10=180.06           
C9-C5-C4-C3=180.06            C9-C5-C4-C10=  0.06           N7-N6-C5-C4=180.00            N7-N6-C5-C9=  0.00            
C8-N7-N6-C5=  0.00            H16-N7-N6-C5=180.00           C9-C8-N7-N6=  0.00            C9-C8-N7-H16=180.00           
H17-C8-N7-N6=180.00           H17-C8-N7-H16=  0.00          C8-C9-C5-C4=180.00            C8-C9-C5-N6=  0.00            
H18-C9-C5-C4=  0.00           H18-C9-C5-N6=180.00           C5-C9-C8-N7=  0.00            C5-C9-C8-H17=180.00           
H18-C9-C8-N7=180.00           H18-C9-C8-H17=  0.00          S11-C10-C4-C3=  0.00          S11-C10-C4-C5=180.00          
           -------------------------------------------------
          |                Final Singlepoint                |
           -------------------------------------------------

          ...................................................
          :                      SETUP                      :
          :.................................................:
          :  # basis functions                  57          :
          :  # atomic orbitals                  56          :
          :  # shells                           30          :
          :  # electrons                        56          :
          :  max. iterations                   250          :
          :  Hamiltonian                  GFN2-xTB          :
          :  restarted?                      false          :
          :  GBSA solvation                  false          :
          :  PC potential                    false          :
          :  electronic temp.          300.0000000     K    :
          :  accuracy                    1.0000000          :
          :  -> integral cutoff          0.2500000E+02      :
          :  -> integral neglect         0.1000000E-07      :
          :  -> SCF convergence          0.1000000E-05 Eh   :
          :  -> wf. convergence          0.1000000E-03 e    :
          :  Broyden damping             0.4000000          :
          ...................................................

 iter      E             dE          RMSdq      gap      omega  full diag
   1    -30.3256333 -0.303256E+02  0.870E-05    2.12       0.0  T
   2    -30.3256333 -0.199201E-10  0.666E-05    2.12     353.7  T
   3    -30.3256333 -0.260449E-10  0.419E-05    2.12     562.0  T

   *** convergence criteria satisfied after 3 iterations ***

         #    Occupation            Energy/Eh            Energy/eV
      -------------------------------------------------------------
         1        2.0000           -0.5372351             -14.6189
       ...           ...                  ...                  ...
        22        2.0000           -0.2520133              -6.8576
        23        2.0000           -0.2463706              -6.7041
        24        2.0000           -0.2339683              -6.3666
        25        2.0000           -0.2270866              -6.1793
        26        2.0000           -0.1889432              -5.1414
        27        2.0000           -0.1621764              -4.4130
        28        2.0000           -0.1419528              -3.8627 (HOMO)
        29                         -0.0639586              -1.7404 (LUMO)
        30                         -0.0333276              -0.9069
        31                         -0.0152221              -0.4142
        32                          0.0050449               0.1373
        33                          0.0842210               2.2918
       ...                                ...                  ...
        56                          0.8844597              24.0674
      -------------------------------------------------------------
                  HL-Gap            0.0779941 Eh            2.1223 eV
             Fermi-level           -0.1029557 Eh           -2.8016 eV
 
 localization/xTB-IFF output generation
 averaging CT terms over            1  occ. levels
 averaging CT terms over            1  virt. levels
 dipole moment from electron density (au)
     X       Y       Z   
   1.1460   2.5858   1.3098  total (Debye):    7.923
cpu  time for init local    0.00 s
wall time for init local    0.00 s
 doing rotations ...
 initialization of trafo matrix to unity
iteration     50  convergence  0.23259522D-02

 converged in     79 iterations, threshold :   0.99867163D-06
 doing transformations ...
 lmo centers(Z=2) and atoms on file <lmocent.coord>
 LMO Fii/eV  ncent    charge center   contributions...
    1 sigma -12.79   1.94   4.24019   2.69527   0.61998    7N :  0.57    6N :  0.43
    2 sigma -12.49   1.92   6.04720   1.99516   0.16796    7N :  0.59    8C :  0.42
    3 sigma -12.37   1.97   5.88928   3.82087   1.06348    7N :  0.56   16H :  0.45
    4 sigma -10.96   2.00   8.05557   0.71323  -0.23029   17H :  0.51    8C :  0.48
    5 sigma -10.19   1.98  -7.12373   0.94579   0.24547   13H :  0.51    1C :  0.50
    6 sigma -10.16   1.98  -7.67270  -0.39253  -1.45842   14H :  0.50    1C :  0.50
    7 sigma -10.16   1.98  -7.61497  -1.20353   0.61253   12H :  0.50    1C :  0.50
    8 sigma -10.16   1.96  -5.71625  -0.66324  -0.42408    1C :  0.54    2C :  0.47
    9 sigma -10.00   2.00   3.69875  -0.51124  -0.61118    9C :  0.52    5C :  0.48
   10 sigma  -9.69   2.01   5.07217  -2.24063  -1.33612   18H :  0.50    9C :  0.50
   11 sigma  -9.55   1.96  -3.96310  -2.50500  -1.20572   11S :  0.57    2C :  0.43
   12 sigma  -9.42   2.00   1.34937  -0.35832  -0.48369    5C :  0.54    4C :  0.45
   13 pi     -9.41   2.15   5.66540   0.03074  -0.98562    9C :  0.49    8C :  0.47
   14 pi     -9.36   2.17   5.67056  -0.34638  -0.03871    9C :  0.49    8C :  0.47
   15 pi     -9.28   2.08   2.78719   1.62713  -0.22032    6N :  0.57    5C :  0.40
   16 pi     -9.26   1.54   5.38194   2.33518   0.70394    7N :  0.80    8C :  0.12
   17 pi     -9.26   2.09   2.81592   1.27913   0.63545    6N :  0.57    5C :  0.40
   18 sigma  -9.06   1.99  -1.07386  -0.21817  -0.36520    3C :  0.53    4C :  0.47
   19 sigma  -8.96   2.01  -2.23184   1.65709   0.41429   15H :  0.52    3C :  0.47
   20 LP     -8.43   1.14  -3.77728  -5.65769   0.16773   11S :  0.93
   21 LP     -8.42   1.15  -3.89410  -3.83958  -4.37999   11S :  0.93
   22 sigma  -8.37   1.78  -2.01731  -3.73645  -1.74797   11S :  0.68   10C :  0.32
   23 pi     -8.24   2.08  -3.25497  -0.56226   0.12283    2C :  0.51    3C :  0.47
   24 pi     -8.24   2.08  -3.28016  -0.16963  -0.85915    2C :  0.51    3C :  0.47
   25 LP     -7.43   1.02   1.74846   3.82210   1.18339    6N :  0.99
   26 delpi  -7.12   2.31  -0.04682  -1.58971  -1.43947    4C :  0.55   10C :  0.36
   27 delpi  -7.09   2.32  -0.02446  -1.93304  -0.57849    4C :  0.55   10C :  0.36
   28 LP     -5.19   1.08   0.88369  -4.93606  -2.30218   10C :  0.96
 starting deloc pi regularization ...
 thr    2.20000000000000      # pi deloc LMO           5
 files:
 coordprot.0/xtbscreen.xyz/xtblmoinfo/lmocent.coord
 with protonation site input, xtbdock and
 LMO center info written
 

 SCC (total)                   0 d,  0 h,  0 min,  0.035 sec
 SCC setup                      ...        0 min,  0.000 sec (  0.462%)
 Dispersion                     ...        0 min,  0.000 sec (  0.328%)
 classical contributions        ...        0 min,  0.000 sec (  0.100%)
 integral evaluation            ...        0 min,  0.004 sec ( 12.546%)
 iterations                     ...        0 min,  0.004 sec ( 11.248%)
 molecular gradient             ...        0 min,  0.010 sec ( 27.354%)
 printout                       ...        0 min,  0.017 sec ( 47.825%)

         :::::::::::::::::::::::::::::::::::::::::::::::::::::
         ::                     SUMMARY                     ::
         :::::::::::::::::::::::::::::::::::::::::::::::::::::
         :: total energy             -29.908084521389 Eh    ::
         :: gradient norm              0.000710964228 Eh/a0 ::
         :: HOMO-LUMO gap              2.122328262900 eV    ::
         ::.................................................::
         :: SCC energy               -30.325633283105 Eh    ::
         :: -> isotropic ES            0.110313337300 Eh    ::
         :: -> anisotropic ES          0.007919506993 Eh    ::
         :: -> anisotropic XC          0.018352468462 Eh    ::
         :: -> dispersion             -0.018439882153 Eh    ::
         :: repulsion energy           0.417602906591 Eh    ::
         :: add. restraining           0.000000000000 Eh    ::
         :: total charge              -1.000000000000 e     ::
         :::::::::::::::::::::::::::::::::::::::::::::::::::::

           -------------------------------------------------
          |                Property Printout                |
           -------------------------------------------------

    * Orbital Energies and Occupations

         #    Occupation            Energy/Eh            Energy/eV
      -------------------------------------------------------------
         1        2.0000           -0.5372351             -14.6189
       ...           ...                  ...                  ...
        16        2.0000           -0.3258219              -8.8661
        17        2.0000           -0.3237876              -8.8107
        18        2.0000           -0.3177429              -8.6462
        19        2.0000           -0.2755832              -7.4990
        20        2.0000           -0.2665873              -7.2542
        21        2.0000           -0.2615963              -7.1184
        22        2.0000           -0.2520133              -6.8576
        23        2.0000           -0.2463706              -6.7041
        24        2.0000           -0.2339683              -6.3666
        25        2.0000           -0.2270866              -6.1793
        26        2.0000           -0.1889432              -5.1414
        27        2.0000           -0.1621764              -4.4130
        28        2.0000           -0.1419528              -3.8627 (HOMO)
        29                         -0.0639586              -1.7404 (LUMO)
        30                         -0.0333276              -0.9069
        31                         -0.0152221              -0.4142
        32                          0.0050449               0.1373
        33                          0.0842210               2.2918
        34                          0.0859467               2.3387
        35                          0.1458052               3.9676
        36                          0.1964588               5.3459
        37                          0.2098450               5.7102
        38                          0.2287553               6.2247
        39                          0.2488763               6.7723
       ...                                ...                  ...
        56                          0.8844597              24.0674
      -------------------------------------------------------------
                  HL-Gap            0.0779941 Eh            2.1223 eV
             Fermi-level           -0.1029557 Eh           -2.8016 eV

     #   Z          covCN         q      C6AA      α(0)
     1   6 C        3.769    -0.076    21.981     6.682
     2   6 C        2.975     0.006    27.882     8.661
     3   6 C        3.101    -0.062    29.414     8.887
     4   6 C        3.224    -0.044    28.287     8.643
     5   6 C        3.130     0.071    26.214     8.382
     6   7 N        1.982    -0.291    28.352     7.897
     7   7 N        2.971    -0.038    21.972     6.962
     8   6 C        2.982    -0.015    28.390     8.740
     9   6 C        3.018    -0.083    30.046     8.991
    10   6 C        1.974    -0.233    37.959     9.950
    11  16 S        2.398    -0.328   155.342    20.977
    12   1 H        0.924     0.008     2.925     2.674
    13   1 H        0.924     0.001     3.047     2.730
    14   1 H        0.924     0.008     2.921     2.673
    15   1 H        0.925    -0.035     3.745     3.026
    16   1 H        0.860     0.117     1.647     2.011
    17   1 H        0.926    -0.018     3.386     2.878
    18   1 H        0.927     0.011     2.871     2.650

 Mol. C6AA /au·bohr⁶  :       5943.614090
 Mol. C8AA /au·bohr⁸  :     164300.623540
 Mol. α(0) /au        :        123.414622


Wiberg/Mayer (AO) data.
largest (>0.10) Wiberg bond orders for each atom

 ---------------------------------------------------------------------------
     #   Z sym  total        # sym  WBO       # sym  WBO       # sym  WBO
 ---------------------------------------------------------------------------
     1   6 C    3.994 --     2 C    1.022    13 H    0.984    14 H    0.979
                            12 H    0.979
     2   6 C    3.934 --     3 C    1.644    11 S    1.091     1 C    1.022
                            10 C    0.109
     3   6 C    3.979 --     2 C    1.644     4 C    1.193    15 H    0.962
     4   6 C    3.955 --    10 C    1.485     3 C    1.193     5 C    1.124
     5   6 C    3.964 --     6 N    1.438     9 C    1.249     4 C    1.124
     6   7 N    2.910 --     5 C    1.438     7 N    1.148     8 C    0.156
     7   7 N    3.551 --     8 C    1.233     6 N    1.148    16 H    0.956
                             9 C    0.102
     8   6 C    3.948 --     9 C    1.570     7 N    1.233    17 H    0.968
                             6 N    0.156
     9   6 C    3.976 --     8 C    1.570     5 C    1.249    18 H    0.975
                             7 N    0.102
    10   6 C    2.978 --     4 C    1.485    11 S    1.223     2 C    0.109
    11  16 S    2.520 --    10 C    1.223     2 C    1.091
    12   1 H    0.999 --     1 C    0.979
    13   1 H    1.000 --     1 C    0.984
    14   1 H    0.999 --     1 C    0.979
    15   1 H    0.999 --     3 C    0.962
    16   1 H    0.986 --     7 N    0.956
    17   1 H    0.999 --     8 C    0.968
    18   1 H    1.000 --     9 C    0.975
 ---------------------------------------------------------------------------

Topologies differ in total number of bonds
Writing topology from bond orders to xtbtopo.mol

molecular dipole:
                 x           y           z       tot (Debye)
 q only:        0.986       1.760       0.984
   full:        1.146       2.586       1.310       7.922
molecular quadrupole (traceless):
                xx          xy          yy          xz          yz          zz
 q only:       -4.556      -5.599      -2.342      -2.326      -5.374       6.898
  q+dip:        4.029      -4.609      -8.120      -2.277      -7.339       4.091
   full:        3.346      -4.858      -8.973      -2.307      -8.471       5.627

           -------------------------------------------------
          |                Geometry Summary                 |
           -------------------------------------------------

      molecular mass/u    :      163.2196663
   center of mass at/Å    :        0.0239918      -0.3685259      -0.3097638
  moments of inertia/u·Å² :        0.1769619E+03   0.9370817E+03   0.1110907E+04
rotational constants/cm⁻¹ :        0.9526136E-01   0.1798950E-01   0.1517466E-01

 * 16 selected distances

     #   Z          #   Z                                           value/Å
     2   6 C        3   6 C                                       1.3521221
     3   6 C        4   6 C                                       1.4319480
     4   6 C        5   6 C                                       1.4343205
     5   6 C        6   7 N                                       1.3328232
     6   7 N        7   7 N                                       1.3502556
     7   7 N        8   6 C                                       1.3569980
     5   6 C        9   6 C                                       1.4254760
     8   6 C        9   6 C                                       1.3638349
     2   6 C       11  16 S                                       1.7549818 (max)
     1   6 C       12   1 H                                       1.0936856
     1   6 C       13   1 H                                       1.0914251
     1   6 C       14   1 H                                       1.0935850
     3   6 C       15   1 H                                       1.0813724
     7   7 N       16   1 H                                       1.0062873 (min)
     8   6 C       17   1 H                                       1.0755503
     9   6 C       18   1 H                                       1.0702964

 * 6 distinct bonds (by element types)

   Z      Z             #   av. dist./Å        max./Å        min./Å
   1 H    6 C           6     1.0843191     1.0936856     1.0702964
   6 C    6 C           5     1.4015403     1.4343205     1.3521221
   1 H    7 N           1     1.0062873     1.0062873     1.0062873
   6 C    7 N           2     1.3449106     1.3569980     1.3328232
   7 N    7 N           1     1.3502556     1.3502556     1.3502556
   6 C   16 S           1     1.7549818     1.7549818     1.7549818


optimized geometry written to: xtbopt.xyz


           -------------------------------------------------
          | TOTAL ENERGY              -29.908084521389 Eh   |
          | GRADIENT NORM               0.000710964228 Eh/α |
          | HOMO-LUMO GAP               2.122328262900 eV   |
           -------------------------------------------------

------------------------------------------------------------------------
 * finished run on 2022/11/02 at 18:13:41.097     
------------------------------------------------------------------------
 total:
 * wall-time:     0 d,  0 h,  0 min,  0.362 sec
 *  cpu-time:     0 d,  0 h,  0 min,  0.276 sec
 * ratio c/w:     0.764 speedup
 SCF:
 * wall-time:     0 d,  0 h,  0 min,  0.049 sec
 *  cpu-time:     0 d,  0 h,  0 min,  0.044 sec
 * ratio c/w:     0.889 speedup
 ANC optimizer:
 * wall-time:     0 d,  0 h,  0 min,  0.207 sec
 *  cpu-time:     0 d,  0 h,  0 min,  0.201 sec
 * ratio c/w:     0.968 speedup

