      -----------------------------------------------------------      
     |                   =====================                   |     
     |                           x T B                           |     
     |                   =====================                   |     
     |                         S. Grimme                         |     
     |          Mulliken Center for Theoretical Chemistry        |     
     |                    University of Bonn                     |     
      -----------------------------------------------------------      

   * xtb version 6.4.1 (afa7bdf) compiled by 'ehlert@majestix' on 2021-06-10

   xtb is free software: you can redistribute it and/or modify it under
   the terms of the GNU Lesser General Public License as published by
   the Free Software Foundation, either version 3 of the License, or
   (at your option) any later version.
   
   xtb is distributed in the hope that it will be useful,
   but WITHOUT ANY WARRANTY; without even the implied warranty of
   MERCHANTABILITY or FITNESS FOR A PARTICULAR PURPOSE.  See the
   GNU Lesser General Public License for more details.
   
   Cite this work as:
   * C. Bannwarth, E. Caldeweyher, S. Ehlert, A. Hansen, P. Pracht,
     J. Seibert, S. Spicher, S. Grimme, WIREs Comput. Mol. Sci., 2020, 11,
     e01493. DOI: 10.1002/wcms.1493
   
   for GFN2-xTB:
   * C. Bannwarth, S. Ehlert and S. Grimme., J. Chem. Theory Comput., 2019,
     15, 1652-1671. DOI: 10.1021/acs.jctc.8b01176
   for GFN1-xTB:
   * S. Grimme, C. Bannwarth, P. Shushkov, J. Chem. Theory Comput., 2017,
     13, 1989-2009. DOI: 10.1021/acs.jctc.7b00118
   for GFN0-xTB:
   * P. Pracht, E. Caldeweyher, S. Ehlert, S. Grimme, ChemRxiv, 2019, preprint.
     DOI: 10.26434/chemrxiv.8326202.v1
   for GFN-FF:
   * S. Spicher and S. Grimme, Angew. Chem. Int. Ed., 2020, 59, 15665-15673.
     DOI: 10.1002/anie.202004239
   
   for DFT-D4:
   * E. Caldeweyher, C. Bannwarth and S. Grimme, J. Chem. Phys., 2017,
     147, 034112. DOI: 10.1063/1.4993215
   * E. Caldeweyher, S. Ehlert, A. Hansen, H. Neugebauer, S. Spicher,
     C. Bannwarth and S. Grimme, J. Chem. Phys., 2019, 150, 154122.
     DOI: 10.1063/1.5090222
   * E. Caldeweyher, J.-M. Mewes, S. Ehlert and S. Grimme, Phys. Chem. Chem. Phys.
     2020, 22, 8499-8512. DOI: 10.1039/D0CP00502A
   
   for sTDA-xTB:
   * S. Grimme and C. Bannwarth, J. Chem. Phys., 2016, 145, 054103.
     DOI: 10.1063/1.4959605
   
   in the mass-spec context:
   * V. Asgeirsson, C. Bauer and S. Grimme, Chem. Sci., 2017, 8, 4879.
     DOI: 10.1039/c7sc00601b
   * J. Koopman and S. Grimme, ACS Omega 2019, 4, 12, 15120-15133.
     DOI: 10.1021/acsomega.9b02011
   
   for metadynamics refer to:
   * S. Grimme, J. Chem. Theory Comput., 2019, 155, 2847-2862
     DOI: 10.1021/acs.jctc.9b00143
   
   for SPH calculations refer to:
   * S. Spicher and S. Grimme, J. Chem. Theory Comput., 2021, 17, 1701-1714
     DOI: 10.1021/acs.jctc.0c01306
   
   with help from (in alphabetical order)
   P. Atkinson, C. Bannwarth, F. Bohle, G. Brandenburg, E. Caldeweyher
   M. Checinski, S. Dohm, S. Ehlert, S. Ehrlich, I. Gerasimov, J. Koopman
   C. Lavigne, S. Lehtola, F. März, M. Müller, F. Musil, H. Neugebauer
   J. Pisarek, C. Plett, P. Pracht, J. Seibert, P. Shushkov, S. Spicher
   M. Stahn, M. Steiner, T. Strunk, J. Stückrath, T. Rose, and J. Unsleber
   
 * started run on 2022/11/02 at 18:13:33.968     

           -------------------------------------------------
          |                Calculation Setup                |
           -------------------------------------------------

          program call               : /lustre/hpc/kemi/borup/pKalculator/dep/xtb-6.4.1/bin/xtb --gfn 2 /lustre/hpc/kemi/borup/pKalculator/calc/test/conf06/test_conf06_gfn2.xyz --opt --lmo --chrg 0 --uhf 0
          hostname                   : fend01.cluster
          coordinate file            : /lustre/hpc/kemi/borup/pKalculator/calc/test/conf06/test_conf06_gfn2.xyz
          omp threads                :                     1
          number of atoms            :                    19
          number of electrons        :                    56
          charge                     :                     0
          spin                       :                   0.0
          first test random number   :      0.87740163112950

   ID    Z sym.   atoms
    1    6 C      1-5, 7, 8, 11
    2   16 S      6
    3    7 N      9, 10
    4    1 H      12-19

           -------------------------------------------------
          |                 G F N 2 - x T B                 |
           -------------------------------------------------

        Reference                      10.1021/acs.jctc.8b01176
      * Hamiltonian:
        H0-scaling (s, p, d)           1.850000    2.230000    2.230000
        zeta-weighting                 0.500000
      * Dispersion:
        s8                             2.700000
        a1                             0.520000
        a2                             5.000000
        s9                             5.000000
      * Repulsion:
        kExp                           1.500000    1.000000
        rExp                           1.000000
      * Coulomb:
        alpha                          2.000000
        third order                    shell-resolved
        anisotropic                    true
        a3                             3.000000
        a5                             4.000000
        cn-shift                       1.200000
        cn-exp                         4.000000
        max-rad                        5.000000


          ...................................................
          :                      SETUP                      :
          :.................................................:
          :  # basis functions                  58          :
          :  # atomic orbitals                  57          :
          :  # shells                           31          :
          :  # electrons                        56          :
          :  max. iterations                   250          :
          :  Hamiltonian                  GFN2-xTB          :
          :  restarted?                      false          :
          :  GBSA solvation                  false          :
          :  PC potential                    false          :
          :  electronic temp.          300.0000000     K    :
          :  accuracy                    1.0000000          :
          :  -> integral cutoff          0.2500000E+02      :
          :  -> integral neglect         0.1000000E-07      :
          :  -> SCF convergence          0.1000000E-05 Eh   :
          :  -> wf. convergence          0.1000000E-03 e    :
          :  Broyden damping             0.4000000          :
          ...................................................

 iter      E             dE          RMSdq      gap      omega  full diag
   1    -30.6375821 -0.306376E+02  0.360E+00    3.42       0.0  T
   2    -30.6905412 -0.529591E-01  0.263E+00    3.37       1.0  T
   3    -30.7105221 -0.199809E-01  0.136E+00    3.48       1.0  T
   4    -30.7133518 -0.282968E-02  0.596E-01    3.44       1.0  T
   5    -30.7171104 -0.375865E-02  0.187E-01    3.44       1.0  T
   6    -30.7173476 -0.237172E-03  0.806E-02    3.45       1.0  T
   7    -30.7173755 -0.279077E-04  0.368E-02    3.45       1.0  T
   8    -30.7173895 -0.140044E-04  0.157E-02    3.45       1.5  T
   9    -30.7173903 -0.805266E-06  0.602E-03    3.45       3.8  T
  10    -30.7173904 -0.117185E-06  0.255E-03    3.45       9.0  T
  11    -30.7173905 -0.440235E-07  0.993E-04    3.45      23.1  T
  12    -30.7173905 -0.754717E-09  0.437E-04    3.45      52.5  T

   *** convergence criteria satisfied after 12 iterations ***

         #    Occupation            Energy/Eh            Energy/eV
      -------------------------------------------------------------
         1        2.0000           -0.7185910             -19.5539
       ...           ...                  ...                  ...
        22        2.0000           -0.4411071             -12.0031
        23        2.0000           -0.4341640             -11.8142
        24        2.0000           -0.4153068             -11.3011
        25        2.0000           -0.4047248             -11.0131
        26        2.0000           -0.3902540             -10.6194
        27        2.0000           -0.3808353             -10.3631
        28        2.0000           -0.3665158              -9.9734 (HOMO)
        29                         -0.2397363              -6.5236 (LUMO)
        30                         -0.2113736              -5.7518
        31                         -0.1921262              -5.2280
        32                         -0.1820420              -4.9536
        33                         -0.1145537              -3.1172
       ...                                ...                  ...
        57                          0.7196787              19.5835
      -------------------------------------------------------------
                  HL-Gap            0.1267795 Eh            3.4498 eV
             Fermi-level           -0.3031260 Eh           -8.2485 eV
 
 localization/xTB-IFF output generation
 averaging CT terms over            1  occ. levels
 averaging CT terms over            1  virt. levels
 dipole moment from electron density (au)
     X       Y       Z   
  -0.7527  -0.5582  -0.7201  total (Debye):    3.004
cpu  time for init local    0.01 s
wall time for init local    0.01 s
 doing rotations ...
 initialization of trafo matrix to unity

 converged in     41 iterations, threshold :   0.99308659D-06
 doing transformations ...
 lmo centers(Z=2) and atoms on file <lmocent.coord>
 LMO Fii/eV  ncent    charge center   contributions...
    1 sigma -17.11   1.96  -5.56962   0.12682   1.68808   10N :  0.55    9N :  0.45
    2 sigma -16.37   1.92  -6.47232  -0.91791   0.18596   10N :  0.58   11C :  0.43
    3 sigma -15.86   1.95  -7.59518  -0.17828   1.71983   10N :  0.58   18H :  0.43
    4 sigma -14.85   1.94   4.34867   1.56749   1.44971    6S :  0.58    5C :  0.42
    5 sigma -14.81   1.94   2.54091   2.21088   2.99426    6S :  0.58    7C :  0.42
    6 sigma -14.79   1.97   5.56929   0.49521  -0.64880    5C :  0.51    8C :  0.50
    7 sigma -14.51   1.99  -3.02958  -0.76747  -0.48201    1C :  0.51    2C :  0.49
    8 sigma -14.48   2.00   1.00071   0.21353   0.08735    3C :  0.50    4C :  0.50
    9 sigma -14.47   2.02  -1.27566   0.27679   0.79274    2C :  0.50    3C :  0.49
   10 sigma -14.43   2.01  -7.11001  -2.19393  -1.77271   11C :  0.51   19H :  0.49
   11 sigma -13.94   2.01   7.00905  -1.04911  -1.34976    8C :  0.52   16H :  0.48
   12 sigma -13.93   2.00   6.62021   0.67439  -2.60976    8C :  0.52   17H :  0.48
   13 sigma -13.90   2.00   0.16164   2.42058   3.97060    7C :  0.52   14H :  0.48
   14 sigma -13.85   1.98   7.76093   0.90831  -0.77132    8C :  0.52   15H :  0.48
   15 LP    -13.82   1.19   4.89599   0.65398   4.50001    6S :  0.92
   16 LP    -13.82   1.19   4.24503   4.74484   2.03298    6S :  0.92
   17 sigma -13.78   2.01  -2.94550  -1.95629  -2.48824    1C :  0.51   12H :  0.49
   18 sigma -13.77   2.01   1.86028  -0.80654  -1.82981    4C :  0.51   13H :  0.49
   19 pi    -13.76   2.16  -3.67068   0.65616   1.15536    9N :  0.52    2C :  0.44
   20 pi    -13.75   2.16  -3.54464  -0.13066   1.62694    9N :  0.52    2C :  0.44
   21 pi    -13.44   2.19  -4.85822  -1.03291  -1.42525    1C :  0.49   11C :  0.47
   22 pi    -13.44   2.19  -4.72128  -1.88844  -0.91242    1C :  0.49   11C :  0.47
   23 pi    -13.29   2.13   3.06242   0.76604  -0.55780    4C :  0.49    5C :  0.48
   24 pi    -13.29   2.13   3.20269  -0.11690  -0.02528    4C :  0.49    5C :  0.48
   25 pi    -13.24   2.18   0.56999   0.79651   2.16689    3C :  0.48    7C :  0.48
   26 pi    -13.23   2.18   0.43209   1.66360   1.64365    3C :  0.48    7C :  0.48
   27 pi    -13.21   1.60  -6.16262  -0.36241   1.02987   10N :  0.78   11C :  0.09    9N :  0.09
   28 LP    -11.67   1.02  -4.47321   1.54910   3.76865    9N :  0.99
 starting deloc pi regularization ...
 thr    2.20000000000000      # pi deloc LMO           5
 files:
 coordprot.0/xtbscreen.xyz/xtblmoinfo/lmocent.coord
 with protonation site input, xtbdock and
 LMO center info written
 

 SCC (total)                   0 d,  0 h,  0 min,  0.053 sec
 SCC setup                      ...        0 min,  0.000 sec (  0.634%)
 Dispersion                     ...        0 min,  0.000 sec (  0.493%)
 classical contributions        ...        0 min,  0.000 sec (  0.122%)
 integral evaluation            ...        0 min,  0.005 sec (  9.192%)
 iterations                     ...        0 min,  0.016 sec ( 30.342%)
 molecular gradient             ...        0 min,  0.010 sec ( 19.637%)
 printout                       ...        0 min,  0.021 sec ( 39.467%)

         :::::::::::::::::::::::::::::::::::::::::::::::::::::
         ::                     SUMMARY                     ::
         :::::::::::::::::::::::::::::::::::::::::::::::::::::
         :: total energy             -30.271844872775 Eh    ::
         :: gradient norm              0.052435833297 Eh/a0 ::
         :: HOMO-LUMO gap              3.449846662031 eV    ::
         ::.................................................::
         :: SCC energy               -30.717390468611 Eh    ::
         :: -> isotropic ES            0.010656409995 Eh    ::
         :: -> anisotropic ES          0.003816998000 Eh    ::
         :: -> anisotropic XC          0.020521904867 Eh    ::
         :: -> dispersion             -0.017827057354 Eh    ::
         :: repulsion energy           0.445579125662 Eh    ::
         :: add. restraining           0.000000000000 Eh    ::
         :: total charge               0.000000000000 e     ::
         :::::::::::::::::::::::::::::::::::::::::::::::::::::

      ----------------------------------------------------------- 
     |                   =====================                   |
     |                        A N C O P T                        |
     |                   =====================                   |
     |               Approximate Normal Coordinate               |
     |                Rational Function Optimizer                |
      ----------------------------------------------------------- 

          ...................................................
          :                      SETUP                      :
          :.................................................:
          :   optimization level            normal          :
          :   max. optcycles                   200          :
          :   ANC micro-cycles                  20          :
          :   degrees of freedom                51          :
          :.................................................:
          :   RF solver                   davidson          :
          :   write xtbopt.log                true          :
          :   linear?                        false          :
          :   energy convergence         0.5000000E-05 Eh   :
          :   grad. convergence          0.1000000E-02 Eh/α :
          :   maximium RF displ.         1.0000000          :
          :   Hlow (freq-cutoff)         0.1000000E-01      :
          :   Hmax (freq-cutoff)         5.0000000          :
          :   S6 in model hess.         20.0000000          :
          ...................................................

generating ANC from model Hessian ...
Using Lindh-Hessian (1995)
 Shifting diagonal of input Hessian by   8.224993215216914E-003
 Lowest  eigenvalues of input Hessian
    0.000000    0.000000    0.000000    0.000000    0.000000    0.000000
    0.010000    0.011566    0.012587    0.016225    0.018646    0.023874
    0.031426    0.034042    0.044131    0.044910    0.053327    0.055268
 Highest eigenvalues
    1.720125    1.838851    1.930665    1.966351    2.028552    2.109797
 

........................................................................
.............................. CYCLE    1 ..............................
........................................................................
   1    -30.7173905 -0.307174E+02  0.163E-04    3.45       0.0  T
   2    -30.7173905 -0.563425E-10  0.969E-05    3.45     236.7  T
   3    -30.7173905 -0.533618E-11  0.663E-05    3.45     345.9  T
     SCC iter.                  ...        0 min,  0.006 sec
     gradient                   ...        0 min,  0.017 sec
 * total energy  :   -30.2718449 Eh     change       -0.1225047E-08 Eh
   gradient norm :     0.0524385 Eh/α   predicted     0.0000000E+00 (-100.00%)
   displ. norm   :     0.1715840 α      lambda       -0.4542300E-02
   maximum displ.:     0.0798171 α      in ANC's #12, #18, #3, ...

........................................................................
.............................. CYCLE    2 ..............................
........................................................................
   1    -30.7276259 -0.307276E+02  0.201E-01    3.41       0.0  T
   2    -30.7276813 -0.554105E-04  0.120E-01    3.41       1.0  T
   3    -30.7276722  0.913844E-05  0.625E-02    3.41       1.0  T
   4    -30.7277019 -0.297520E-04  0.187E-02    3.41       1.2  T
   5    -30.7277045 -0.253481E-05  0.823E-03    3.41       2.8  T
   6    -30.7277050 -0.484986E-06  0.387E-03    3.41       5.9  T
   7    -30.7277051 -0.898812E-07  0.146E-03    3.41      15.7  T
   8    -30.7277051 -0.905933E-08  0.824E-04    3.41      27.8  T
   9    -30.7277051 -0.360159E-08  0.182E-04    3.41     125.9  T
     SCC iter.                  ...        0 min,  0.014 sec
     gradient                   ...        0 min,  0.010 sec
 * total energy  :   -30.2749576 Eh     change       -0.3112713E-02 Eh
   gradient norm :     0.0200643 Eh/α   predicted    -0.2338201E-02 ( -24.88%)
   displ. norm   :     0.1610802 α      lambda       -0.1312194E-02
   maximum displ.:     0.1055533 α      in ANC's #3, #12, #18, ...

........................................................................
.............................. CYCLE    3 ..............................
........................................................................
   1    -30.7326578 -0.307327E+02  0.138E-01    3.39       0.0  T
   2    -30.7326807 -0.229019E-04  0.819E-02    3.39       1.0  T
   3    -30.7326761  0.464655E-05  0.456E-02    3.39       1.0  T
   4    -30.7326902 -0.141174E-04  0.111E-02    3.39       2.1  T
   5    -30.7326912 -0.104572E-05  0.580E-03    3.39       4.0  T
   6    -30.7326916 -0.378066E-06  0.163E-03    3.39      14.1  T
   7    -30.7326916 -0.733107E-08  0.484E-04    3.39      47.4  T
   8    -30.7326916 -0.820965E-09  0.257E-04    3.39      89.2  T
     SCC iter.                  ...        0 min,  0.010 sec
     gradient                   ...        0 min,  0.010 sec
 * total energy  :   -30.2757025 Eh     change       -0.7449160E-03 Eh
   gradient norm :     0.0070116 Eh/α   predicted    -0.6731951E-03 (  -9.63%)
   displ. norm   :     0.0895251 α      lambda       -0.1597748E-03
   maximum displ.:     0.0812960 α      in ANC's #3, #12, #7, ...

........................................................................
.............................. CYCLE    4 ..............................
........................................................................
   1    -30.7325369 -0.307325E+02  0.442E-02    3.39       0.0  T
   2    -30.7325377 -0.802201E-06  0.261E-02    3.39       1.0  T
   3    -30.7325358  0.191166E-05  0.139E-02    3.39       1.7  T
   4    -30.7325382 -0.244394E-05  0.280E-03    3.39       8.2  T
   5    -30.7325383 -0.686032E-07  0.147E-03    3.39      15.6  T
   6    -30.7325383 -0.128115E-07  0.509E-04    3.39      45.0  T
   7    -30.7325383 -0.176828E-08  0.276E-04    3.39      83.1  T
     SCC iter.                  ...        0 min,  0.009 sec
     gradient                   ...        0 min,  0.010 sec
 * total energy  :   -30.2758217 Eh     change       -0.1191937E-03 Eh
   gradient norm :     0.0048105 Eh/α   predicted    -0.8052898E-04 ( -32.44%)
   displ. norm   :     0.1018165 α      lambda       -0.1043222E-03
   maximum displ.:     0.0975163 α      in ANC's #3, #7, #12, ...

........................................................................
.............................. CYCLE    5 ..............................
........................................................................
   1    -30.7319554 -0.307320E+02  0.392E-02    3.40       0.0  T
   2    -30.7319563 -0.897216E-06  0.228E-02    3.40       1.0  T
   3    -30.7319552  0.114035E-05  0.103E-02    3.40       2.2  T
   4    -30.7319566 -0.145579E-05  0.289E-03    3.40       7.9  T
   5    -30.7319567 -0.650546E-07  0.135E-03    3.40      17.0  T
   6    -30.7319567 -0.902697E-08  0.609E-04    3.40      37.6  T
   7    -30.7319567 -0.213228E-08  0.293E-04    3.40      78.4  T
     SCC iter.                  ...        0 min,  0.009 sec
     gradient                   ...        0 min,  0.010 sec
 * total energy  :   -30.2758877 Eh     change       -0.6600705E-04 Eh
   gradient norm :     0.0020522 Eh/α   predicted    -0.5270974E-04 ( -20.15%)
   displ. norm   :     0.0429499 α      lambda       -0.1846369E-04
   maximum displ.:     0.0420892 α      in ANC's #3, #4, #5, ...

........................................................................
.............................. CYCLE    6 ..............................
........................................................................
   1    -30.7319323 -0.307319E+02  0.124E-02    3.40       0.0  T
   2    -30.7319324 -0.100392E-06  0.696E-03    3.40       3.3  T
   3    -30.7319323  0.451205E-07  0.272E-03    3.40       8.4  T
   4    -30.7319324 -0.747441E-07  0.697E-04    3.40      32.9  T
   5    -30.7319324 -0.242565E-08  0.289E-04    3.40      79.3  T
     SCC iter.                  ...        0 min,  0.007 sec
     gradient                   ...        0 min,  0.010 sec
 * total energy  :   -30.2759024 Eh     change       -0.1465066E-04 Eh
   gradient norm :     0.0013770 Eh/α   predicted    -0.9291148E-05 ( -36.58%)
   displ. norm   :     0.0502320 α      lambda       -0.1224389E-04
   maximum displ.:     0.0470682 α      in ANC's #3, #4, #5, ...

........................................................................
.............................. CYCLE    7 ..............................
........................................................................
   1    -30.7320881 -0.307321E+02  0.157E-02    3.40       0.0  T
   2    -30.7320883 -0.196007E-06  0.929E-03    3.40       2.5  T
   3    -30.7320882  0.100868E-06  0.408E-03    3.40       5.6  T
   4    -30.7320884 -0.159568E-06  0.998E-04    3.40      23.0  T
   5    -30.7320884 -0.925869E-08  0.496E-04    3.40      46.3  T
     SCC iter.                  ...        0 min,  0.007 sec
     gradient                   ...        0 min,  0.010 sec
 * total energy  :   -30.2759151 Eh     change       -0.1277706E-04 Eh
   gradient norm :     0.0011394 Eh/α   predicted    -0.6135488E-05 ( -51.98%)
   displ. norm   :     0.0342471 α      lambda       -0.4698614E-05
   maximum displ.:     0.0302362 α      in ANC's #3, #4, #5, ...

........................................................................
.............................. CYCLE    8 ..............................
........................................................................
   1    -30.7320557 -0.307321E+02  0.974E-03    3.40       0.0  T
   2    -30.7320558 -0.912733E-07  0.563E-03    3.40       4.1  T
   3    -30.7320557  0.413799E-07  0.238E-03    3.40       9.7  T
   4    -30.7320558 -0.541242E-07  0.884E-04    3.40      25.9  T
   5    -30.7320558 -0.968063E-08  0.286E-04    3.40      80.2  T
     SCC iter.                  ...        0 min,  0.007 sec
     gradient                   ...        0 min,  0.010 sec
 * total energy  :   -30.2759207 Eh     change       -0.5526372E-05 Eh
   gradient norm :     0.0007572 Eh/α   predicted    -0.2374866E-05 ( -57.03%)
   displ. norm   :     0.0366003 α      lambda       -0.3381720E-05
   maximum displ.:     0.0290899 α      in ANC's #3, #4, #5, ...

........................................................................
.............................. CYCLE    9 ..............................
........................................................................
   1    -30.7320432 -0.307320E+02  0.102E-02    3.39       0.0  T
   2    -30.7320433 -0.722751E-07  0.588E-03    3.39       3.9  T
   3    -30.7320432  0.988450E-07  0.311E-03    3.39       7.4  T
   4    -30.7320433 -0.127004E-06  0.846E-04    3.39      27.1  T
   5    -30.7320433 -0.722634E-08  0.302E-04    3.39      75.9  T
     SCC iter.                  ...        0 min,  0.007 sec
     gradient                   ...        0 min,  0.010 sec
 * total energy  :   -30.2759244 Eh     change       -0.3771040E-05 Eh
   gradient norm :     0.0003488 Eh/α   predicted    -0.1697047E-05 ( -55.00%)
   displ. norm   :     0.0452222 α      lambda       -0.2390183E-05
   maximum displ.:     0.0313748 α      in ANC's #3, #4, #5, ...

   *** GEOMETRY OPTIMIZATION CONVERGED AFTER 9 ITERATIONS ***

------------------------------------------------------------------------
 total energy gain   :        -0.0040796 Eh       -2.5600 kcal/mol
 total RMSD          :         0.1368543 a0        0.0724 Å
 total power (kW/mol):        -1.1900970 (step)  -46.1783 (real)
------------------------------------------------------------------------

 ANCopt (total)                0 d,  0 h,  0 min,  0.232 sec
 optimizer setup                ...        0 min,  0.001 sec (  0.219%)
 model hessian                  ...        0 min,  0.003 sec (  1.351%)
 ANC generation                 ...        0 min,  0.001 sec (  0.339%)
 coordinate transformation      ...        0 min,  0.000 sec (  0.069%)
 single point calculation       ...        0 min,  0.222 sec ( 95.739%)
 optimization log               ...        0 min,  0.003 sec (  1.439%)
 hessian update                 ...        0 min,  0.000 sec (  0.068%)
 rational function              ...        0 min,  0.001 sec (  0.390%)

================
 final structure:
================
19
 xtb: 6.4.1 (afa7bdf)
C        -1.94710493043432   -0.78833675325069   -0.80289213025415
C        -1.37692896929541   -0.05720294536067    0.26532829315679
C         0.01425732380714    0.28421381349872    0.46578151772744
C         1.06907693292250   -0.07604950179993   -0.41934088779797
C         2.28848382293486    0.35963337616584   -0.01432970154757
S         2.16930610060811    1.23312966576812    1.48274625129682
C         0.47213884515548    0.99616447339099    1.53691041960413
C         3.60803299760367    0.16374729788062   -0.67645061429624
N        -2.32183317562170    0.30682210482427    1.12522926025173
N        -3.46201396747283   -0.16768858533085    0.63741394537881
C        -3.28836395783202   -0.83498096525757   -0.52276091316606
H        -1.44404347635658   -1.21319729791206   -1.64609663664317
H         0.91978936169438   -0.63806908626183   -1.32379597972694
H        -0.10492965101423    1.38907843848872    2.34853741754075
H         4.37845192848775    0.73472084622126   -0.16489055625057
H         3.89074745908533   -0.88947047825992   -0.66164599036812
H         3.56446108855304    0.48547340416279   -1.71656571399389
H        -4.32225436340701   -0.00635032588762    1.13635966861695
H        -4.10727536941814   -1.28163948108019   -1.04953764952872
 
 Bond Distances (Angstroems)
 ---------------------------
C1-C2=1.4145         C1-C11=1.3710        C1-H12=1.0698        C2-C1=1.4145         C2-C3=1.4464         C2-N9=1.3285         
C3-C2=1.4464         C3-C4=1.4233         C3-C7=1.3652         C4-C3=1.4233         C4-C5=1.3568         C4-H13=1.0753        
C5-C4=1.3568         C5-S6=1.7374         C5-C8=1.4893         S6-C5=1.7374         S6-C7=1.7145         C7-C3=1.3652         
C7-S6=1.7145         C7-H14=1.0706        C8-C5=1.4893         C8-H15=1.0869        C8-H16=1.0906        C8-H17=1.0896        
N9-C2=1.3285         N9-N10=1.3278        N10-N9=1.3278        N10-C11=1.3496       N10-H18=1.0075       C11-C1=1.3710        
C11-N10=1.3496       C11-H19=1.0713       H12-C1=1.0698        H13-C4=1.0753        H14-C7=1.0706        H15-C8=1.0869        
H16-C8=1.0906        H17-C8=1.0896        H18-N10=1.0075       H19-C11=1.0713       
 C  H  Rav=1.0791 sigma=0.0088  Rmin=1.0698  Rmax=1.0906     7
 C  C  Rav=1.4095 sigma=0.0450  Rmin=1.3568  Rmax=1.4893     7
 N  H  Rav=1.0075 sigma=0.0000  Rmin=1.0075  Rmax=1.0075     1
 N  C  Rav=1.3390 sigma=0.0106  Rmin=1.3285  Rmax=1.3496     2
 N  N  Rav=1.3278 sigma=0.0000  Rmin=1.3278  Rmax=1.3278     1
 S  C  Rav=1.7259 sigma=0.0114  Rmin=1.7145  Rmax=1.7374     2
 
 selected bond angles (degree)
 --------------------
C11-C1-C2=104.93               H12-C1-C2=127.66               H12-C1-C11=127.41              C3-C2-C1=127.91                
N9-C2-C1=110.11                N9-C2-C3=121.99                C4-C3-C2=124.53                C7-C3-C2=123.67                
C7-C3-C4=111.80                C5-C4-C3=113.53                H13-C4-C3=123.54               H13-C4-C5=122.94               
S6-C5-C4=110.92                C8-C5-C4=128.42                C8-C5-S6=120.66                C7-S6-C5= 91.47                
S6-C7-C3=112.29                H14-C7-C3=127.26               H14-C7-S6=120.45               H15-C8-C5=110.47               
H16-C8-C5=110.53               H16-C8-H15=108.49              H17-C8-C5=110.50               H17-C8-H15=108.82              
H17-C8-H16=107.97              N10-N9-C2=105.96               C11-N10-N9=112.46              H18-N10-N9=119.61              
H18-N10-C11=127.94             
 
 selected dihedral angles (degree)
 ---------------------------------
C3-C2-C1-C11=179.95           C3-C2-C1-H12=359.96           N9-C2-C1-C11=  0.00           N9-C2-C1-H12=180.01           
C4-C3-C2-C1=  0.11            C4-C3-C2-N9=180.06            C7-C3-C2-C1=180.13            C7-C3-C2-N9=  0.08            
C5-C4-C3-C2=180.02            C5-C4-C3-C7=  0.00            H13-C4-C3-C2=  0.09           H13-C4-C3-C7=180.08           
S6-C5-C4-C3=  0.02            S6-C5-C4-H13=179.95           C8-C5-C4-C3=179.55            C8-C5-C4-H13=359.47           
C7-S6-C5-C4=359.97            C7-S6-C5-C8=180.40            S6-C7-C3-C2=179.96            S6-C7-C3-C4=359.98            
H14-C7-C3-C2=359.95           H14-C7-C3-C4=179.97           C3-C7-S6-C5=  0.03            H14-C7-S6-C5=180.03           
H15-C8-C5-C4=173.28           H15-C8-C5-S6=352.76           H16-C8-C5-C4=293.36           H16-C8-C5-S6=112.85           
H17-C8-C5-C4= 52.81           H17-C8-C5-S6=232.29           N10-N9-C2-C1=  0.00           N10-N9-C2-C3=180.04           
C11-N10-N9-C2=  0.00          H18-N10-N9-C2=180.00          
           -------------------------------------------------
          |                Final Singlepoint                |
           -------------------------------------------------

          ...................................................
          :                      SETUP                      :
          :.................................................:
          :  # basis functions                  58          :
          :  # atomic orbitals                  57          :
          :  # shells                           31          :
          :  # electrons                        56          :
          :  max. iterations                   250          :
          :  Hamiltonian                  GFN2-xTB          :
          :  restarted?                      false          :
          :  GBSA solvation                  false          :
          :  PC potential                    false          :
          :  electronic temp.          300.0000000     K    :
          :  accuracy                    1.0000000          :
          :  -> integral cutoff          0.2500000E+02      :
          :  -> integral neglect         0.1000000E-07      :
          :  -> SCF convergence          0.1000000E-05 Eh   :
          :  -> wf. convergence          0.1000000E-03 e    :
          :  Broyden damping             0.4000000          :
          ...................................................

 iter      E             dE          RMSdq      gap      omega  full diag
   1    -30.7320433 -0.307320E+02  0.157E-04    3.39       0.0  T
   2    -30.7320433 -0.402878E-10  0.112E-04    3.39     204.1  T
   3    -30.7320433 -0.149882E-09  0.590E-05    3.39     388.7  T

   *** convergence criteria satisfied after 3 iterations ***

         #    Occupation            Energy/Eh            Energy/eV
      -------------------------------------------------------------
         1        2.0000           -0.7196995             -19.5840
       ...           ...                  ...                  ...
        22        2.0000           -0.4414561             -12.0126
        23        2.0000           -0.4362907             -11.8721
        24        2.0000           -0.4179790             -11.3738
        25        2.0000           -0.4018087             -10.9338
        26        2.0000           -0.3880310             -10.5589
        27        2.0000           -0.3819293             -10.3928
        28        2.0000           -0.3653547              -9.9418 (HOMO)
        29                         -0.2406111              -6.5474 (LUMO)
        30                         -0.2100718              -5.7163
        31                         -0.1929306              -5.2499
        32                         -0.1827129              -4.9719
        33                         -0.1066016              -2.9008
       ...                                ...                  ...
        57                          0.7315468              19.9064
      -------------------------------------------------------------
                  HL-Gap            0.1247436 Eh            3.3944 eV
             Fermi-level           -0.3029829 Eh           -8.2446 eV
 
 localization/xTB-IFF output generation
 averaging CT terms over            1  occ. levels
 averaging CT terms over            1  virt. levels
 dipole moment from electron density (au)
     X       Y       Z   
  -0.7620  -0.5181  -0.6503  total (Debye):    2.867
cpu  time for init local    0.00 s
wall time for init local    0.00 s
 doing rotations ...
 initialization of trafo matrix to unity
iteration     50  convergence  0.62286374D-05

 converged in     56 iterations, threshold :   0.99319566D-06
 doing transformations ...
 lmo centers(Z=2) and atoms on file <lmocent.coord>
 LMO Fii/eV  ncent    charge center   contributions...
    1 sigma -17.08   1.96  -5.52858   0.12129   1.66462   10N :  0.56    9N :  0.45
    2 sigma -16.54   1.92  -6.48348  -0.89899   0.21598   10N :  0.58   11C :  0.43
    3 sigma -15.97   1.95  -7.53427  -0.13796   1.76792   10N :  0.58   18H :  0.42
    4 sigma -14.86   1.93   2.52299   2.15504   2.92745    6S :  0.59    7C :  0.42
    5 sigma -14.84   1.94   4.30340   1.53531   1.41449    6S :  0.59    5C :  0.41
    6 sigma -14.71   1.97   5.56965   0.50206  -0.64336    5C :  0.51    8C :  0.50
    7 sigma -14.57   2.02  -1.27747   0.21398   0.68662    2C :  0.50    3C :  0.50
    8 sigma -14.54   2.00   0.97159   0.16341   0.00194    3C :  0.50    4C :  0.50
    9 sigma -14.52   1.99  -3.03839  -0.81944  -0.56972    1C :  0.51    2C :  0.49
   10 sigma -14.47   2.01  -7.23698  -2.13497  -1.64451   11C :  0.51   19H :  0.49
   11 sigma -13.92   2.00   7.12272  -0.97955  -1.24026    8C :  0.52   16H :  0.48
   12 sigma -13.90   2.00   6.72893   0.71108  -2.54086    8C :  0.52   17H :  0.48
   13 sigma -13.88   2.00   0.19363   2.37289   3.91160    7C :  0.52   14H :  0.48
   14 LP    -13.86   1.19   4.82054   0.59960   4.42795    6S :  0.91
   15 LP    -13.86   1.20   4.17915   4.68124   1.99914    6S :  0.91
   16 sigma -13.85   1.97   7.75642   1.01636  -0.64108    8C :  0.52   15H :  0.48
   17 sigma -13.82   2.01  -3.04443  -2.01923  -2.57032    1C :  0.51   12H :  0.49
   18 sigma -13.77   2.02   1.83954  -0.83706  -1.90968    4C :  0.51   13H :  0.49
   19 pi    -13.73   2.16  -3.50786  -0.16430   1.55564    9N :  0.52    2C :  0.43
   20 pi    -13.72   2.16  -3.63303   0.61999   1.08597    9N :  0.52    2C :  0.43
   21 delpi -13.41   2.20  -4.74794  -1.89611  -0.92521    1C :  0.49   11C :  0.46
   22 delpi -13.40   2.21  -4.88443  -1.04369  -1.43617    1C :  0.49   11C :  0.46
   23 pi    -13.34   1.61  -6.16448  -0.37952   1.00117   10N :  0.78   11C :  0.10    9N :  0.08
   24 pi    -13.30   2.13   3.02133   0.73433  -0.61378    4C :  0.49    5C :  0.48
   25 pi    -13.28   2.14   3.16036  -0.15243  -0.08530    4C :  0.49    5C :  0.48
   26 pi    -13.21   2.20   0.54775   0.72980   2.06844    3C :  0.48    7C :  0.47
   27 delpi -13.21   2.20   0.41077   1.59683   1.55020    3C :  0.48    7C :  0.47
   28 LP    -11.58   1.02  -4.32220   1.54315   3.71707    9N :  0.99
 starting deloc pi regularization ...
 thr    2.20000000000000      # pi deloc LMO           5
 files:
 coordprot.0/xtbscreen.xyz/xtblmoinfo/lmocent.coord
 with protonation site input, xtbdock and
 LMO center info written
 

 SCC (total)                   0 d,  0 h,  0 min,  0.036 sec
 SCC setup                      ...        0 min,  0.000 sec (  0.546%)
 Dispersion                     ...        0 min,  0.000 sec (  0.339%)
 classical contributions        ...        0 min,  0.000 sec (  0.107%)
 integral evaluation            ...        0 min,  0.005 sec ( 12.449%)
 iterations                     ...        0 min,  0.004 sec ( 11.872%)
 molecular gradient             ...        0 min,  0.010 sec ( 27.778%)
 printout                       ...        0 min,  0.017 sec ( 46.776%)

         :::::::::::::::::::::::::::::::::::::::::::::::::::::
         ::                     SUMMARY                     ::
         :::::::::::::::::::::::::::::::::::::::::::::::::::::
         :: total energy             -30.275924429552 Eh    ::
         :: gradient norm              0.000348352977 Eh/a0 ::
         :: HOMO-LUMO gap              3.394446695608 eV    ::
         ::.................................................::
         :: SCC energy               -30.732043315164 Eh    ::
         :: -> isotropic ES            0.011370315022 Eh    ::
         :: -> anisotropic ES          0.003564723104 Eh    ::
         :: -> anisotropic XC          0.020458556568 Eh    ::
         :: -> dispersion             -0.017883315556 Eh    ::
         :: repulsion energy           0.456155940938 Eh    ::
         :: add. restraining           0.000000000000 Eh    ::
         :: total charge              -0.000000000000 e     ::
         :::::::::::::::::::::::::::::::::::::::::::::::::::::

           -------------------------------------------------
          |                Property Printout                |
           -------------------------------------------------

    * Orbital Energies and Occupations

         #    Occupation            Energy/Eh            Energy/eV
      -------------------------------------------------------------
         1        2.0000           -0.7196995             -19.5840
       ...           ...                  ...                  ...
        16        2.0000           -0.4877953             -13.2736
        17        2.0000           -0.4837927             -13.1647
        18        2.0000           -0.4760562             -12.9541
        19        2.0000           -0.4659777             -12.6799
        20        2.0000           -0.4600763             -12.5193
        21        2.0000           -0.4481574             -12.1950
        22        2.0000           -0.4414561             -12.0126
        23        2.0000           -0.4362907             -11.8721
        24        2.0000           -0.4179790             -11.3738
        25        2.0000           -0.4018087             -10.9338
        26        2.0000           -0.3880310             -10.5589
        27        2.0000           -0.3819293             -10.3928
        28        2.0000           -0.3653547              -9.9418 (HOMO)
        29                         -0.2406111              -6.5474 (LUMO)
        30                         -0.2100718              -5.7163
        31                         -0.1929306              -5.2499
        32                         -0.1827129              -4.9719
        33                         -0.1066016              -2.9008
        34                         -0.0999291              -2.7192
        35                          0.0038296               0.1042
        36                          0.0183088               0.4982
        37                          0.0371098               1.0098
        38                          0.0475332               1.2934
        39                          0.1107347               3.0132
       ...                                ...                  ...
        57                          0.7315468              19.9064
      -------------------------------------------------------------
                  HL-Gap            0.1247436 Eh            3.3944 eV
             Fermi-level           -0.3029829 Eh           -8.2446 eV

     #   Z          covCN         q      C6AA      α(0)
     1   6 C        3.026    -0.072    29.774     8.950
     2   6 C        3.164     0.067    26.165     8.360
     3   6 C        3.160    -0.007    27.878     8.631
     4   6 C        3.122    -0.064    29.408     8.881
     5   6 C        2.979     0.025    27.446     8.594
     6  16 S        2.327    -0.048   143.044    20.130
     7   6 C        2.943    -0.025    28.618     8.774
     8   6 C        3.775    -0.107    22.577     6.770
     9   7 N        1.998    -0.234    26.933     7.697
    10   7 N        2.999     0.011    21.056     6.815
    11   6 C        3.007    -0.007    28.190     8.709
    12   1 H        0.927     0.028     2.622     2.532
    13   1 H        0.926     0.034     2.532     2.488
    14   1 H        0.927     0.053     2.288     2.365
    15   1 H        0.925     0.053     2.282     2.362
    16   1 H        0.924     0.052     2.299     2.371
    17   1 H        0.925     0.051     2.309     2.376
    18   1 H        0.860     0.161     1.332     1.808
    19   1 H        0.926     0.032     2.553     2.499

 Mol. C6AA /au·bohr⁶  :       5713.001323
 Mol. C8AA /au·bohr⁸  :     157105.385588
 Mol. α(0) /au        :        121.113033


Wiberg/Mayer (AO) data.
largest (>0.10) Wiberg bond orders for each atom

 ---------------------------------------------------------------------------
     #   Z sym  total        # sym  WBO       # sym  WBO       # sym  WBO
 ---------------------------------------------------------------------------
     1   6 C    3.980 --    11 C    1.534     2 C    1.302    12 H    0.974
     2   6 C    3.977 --     9 N    1.453     1 C    1.302     3 C    1.075
     3   6 C    3.987 --     7 C    1.552     4 C    1.220     2 C    1.075
     4   6 C    3.984 --     5 C    1.625     3 C    1.220    13 H    0.963
     5   6 C    3.951 --     4 C    1.625     6 S    1.150     8 C    1.035
                             7 C    0.106
     6  16 S    2.610 --     7 C    1.197     5 C    1.150
     7   6 C    3.945 --     3 C    1.552     6 S    1.197    14 H    0.969
                             5 C    0.106
     8   6 C    3.995 --     5 C    1.035    15 H    0.984    17 H    0.972
                            16 H    0.968
     9   7 N    2.963 --     2 C    1.453    10 N    1.217    11 C    0.162
    10   7 N    3.623 --    11 C    1.272     9 N    1.217    18 H    0.944
    11   6 C    3.957 --     1 C    1.534    10 N    1.272    19 H    0.969
                             9 N    0.162
    12   1 H    0.999 --     1 C    0.974
    13   1 H    0.999 --     4 C    0.963
    14   1 H    0.997 --     7 C    0.969
    15   1 H    0.997 --     8 C    0.984
    16   1 H    0.997 --     8 C    0.968
    17   1 H    0.997 --     8 C    0.972
    18   1 H    0.974 --    10 N    0.944
    19   1 H    0.998 --    11 C    0.969
 ---------------------------------------------------------------------------

Topologies differ in total number of bonds
Writing topology from bond orders to xtbtopo.mol

molecular dipole:
                 x           y           z       tot (Debye)
 q only:       -0.308      -0.209      -0.262
   full:       -0.762      -0.518      -0.650       2.867
molecular quadrupole (traceless):
                xx          xy          yy          xz          yz          zz
 q only:       10.530       0.776      -5.689      -3.030       0.161      -4.841
  q+dip:       13.814       0.985      -7.817      -4.173       0.804      -5.997
   full:       13.156       0.580      -6.753      -4.152      -0.623      -6.403

           -------------------------------------------------
          |                Geometry Summary                 |
           -------------------------------------------------

      molecular mass/u    :      164.2276070
   center of mass at/Å    :        0.0086880       0.2473694       0.4086757
  moments of inertia/u·Å² :        0.1764376E+03   0.9504944E+03   0.1123797E+04
rotational constants/cm⁻¹ :        0.9554444E-01   0.1773565E-01   0.1500060E-01

 * 19 selected distances

     #   Z          #   Z                                           value/Å
     1   6 C        2   6 C                                       1.4144795
     2   6 C        3   6 C                                       1.4464253
     3   6 C        4   6 C                                       1.4233326
     4   6 C        5   6 C                                       1.3567634
     5   6 C        6  16 S                                       1.7373645 (max)
     3   6 C        7   6 C                                       1.3652276
     6  16 S        7   6 C                                       1.7144862
     2   6 C        9   7 N                                       1.3284532
     9   7 N       10   7 N                                       1.3278315
     1   6 C       11   6 C                                       1.3709942
    10   7 N       11   6 C                                       1.3496070
     1   6 C       12   1 H                                       1.0698463
     4   6 C       13   1 H                                       1.0752636
     7   6 C       14   1 H                                       1.0705736
     8   6 C       15   1 H                                       1.0868532
     8   6 C       16   1 H                                       1.0906027
     8   6 C       17   1 H                                       1.0896080
    10   7 N       18   1 H                                       1.0074673 (min)
    11   6 C       19   1 H                                       1.0712672

 * 6 distinct bonds (by element types)

   Z      Z             #   av. dist./Å        max./Å        min./Å
   1 H    6 C           7     1.0791450     1.0906027     1.0698463
   6 C    6 C           6     1.3962037     1.4464253     1.3567634
   1 H    7 N           1     1.0074673     1.0074673     1.0074673
   6 C    7 N           2     1.3390301     1.3496070     1.3284532
   7 N    7 N           1     1.3278315     1.3278315     1.3278315
   6 C   16 S           2     1.7259254     1.7373645     1.7144862


optimized geometry written to: xtbopt.xyz


           -------------------------------------------------
          | TOTAL ENERGY              -30.275924429552 Eh   |
          | GRADIENT NORM               0.000348352977 Eh/α |
          | HOMO-LUMO GAP               3.394446695608 eV   |
           -------------------------------------------------

------------------------------------------------------------------------
 * finished run on 2022/11/02 at 18:13:34.401     
------------------------------------------------------------------------
 total:
 * wall-time:     0 d,  0 h,  0 min,  0.433 sec
 *  cpu-time:     0 d,  0 h,  0 min,  0.345 sec
 * ratio c/w:     0.798 speedup
 SCF:
 * wall-time:     0 d,  0 h,  0 min,  0.053 sec
 *  cpu-time:     0 d,  0 h,  0 min,  0.045 sec
 * ratio c/w:     0.852 speedup
 ANC optimizer:
 * wall-time:     0 d,  0 h,  0 min,  0.274 sec
 *  cpu-time:     0 d,  0 h,  0 min,  0.265 sec
 * ratio c/w:     0.969 speedup

