      -----------------------------------------------------------      
     |                   =====================                   |     
     |                           x T B                           |     
     |                   =====================                   |     
     |                         S. Grimme                         |     
     |          Mulliken Center for Theoretical Chemistry        |     
     |                    University of Bonn                     |     
      -----------------------------------------------------------      

   * xtb version 6.4.1 (afa7bdf) compiled by 'ehlert@majestix' on 2021-06-10

   xtb is free software: you can redistribute it and/or modify it under
   the terms of the GNU Lesser General Public License as published by
   the Free Software Foundation, either version 3 of the License, or
   (at your option) any later version.
   
   xtb is distributed in the hope that it will be useful,
   but WITHOUT ANY WARRANTY; without even the implied warranty of
   MERCHANTABILITY or FITNESS FOR A PARTICULAR PURPOSE.  See the
   GNU Lesser General Public License for more details.
   
   Cite this work as:
   * C. Bannwarth, E. Caldeweyher, S. Ehlert, A. Hansen, P. Pracht,
     J. Seibert, S. Spicher, S. Grimme, WIREs Comput. Mol. Sci., 2020, 11,
     e01493. DOI: 10.1002/wcms.1493
   
   for GFN2-xTB:
   * C. Bannwarth, S. Ehlert and S. Grimme., J. Chem. Theory Comput., 2019,
     15, 1652-1671. DOI: 10.1021/acs.jctc.8b01176
   for GFN1-xTB:
   * S. Grimme, C. Bannwarth, P. Shushkov, J. Chem. Theory Comput., 2017,
     13, 1989-2009. DOI: 10.1021/acs.jctc.7b00118
   for GFN0-xTB:
   * P. Pracht, E. Caldeweyher, S. Ehlert, S. Grimme, ChemRxiv, 2019, preprint.
     DOI: 10.26434/chemrxiv.8326202.v1
   for GFN-FF:
   * S. Spicher and S. Grimme, Angew. Chem. Int. Ed., 2020, 59, 15665-15673.
     DOI: 10.1002/anie.202004239
   
   for DFT-D4:
   * E. Caldeweyher, C. Bannwarth and S. Grimme, J. Chem. Phys., 2017,
     147, 034112. DOI: 10.1063/1.4993215
   * E. Caldeweyher, S. Ehlert, A. Hansen, H. Neugebauer, S. Spicher,
     C. Bannwarth and S. Grimme, J. Chem. Phys., 2019, 150, 154122.
     DOI: 10.1063/1.5090222
   * E. Caldeweyher, J.-M. Mewes, S. Ehlert and S. Grimme, Phys. Chem. Chem. Phys.
     2020, 22, 8499-8512. DOI: 10.1039/D0CP00502A
   
   for sTDA-xTB:
   * S. Grimme and C. Bannwarth, J. Chem. Phys., 2016, 145, 054103.
     DOI: 10.1063/1.4959605
   
   in the mass-spec context:
   * V. Asgeirsson, C. Bauer and S. Grimme, Chem. Sci., 2017, 8, 4879.
     DOI: 10.1039/c7sc00601b
   * J. Koopman and S. Grimme, ACS Omega 2019, 4, 12, 15120-15133.
     DOI: 10.1021/acsomega.9b02011
   
   for metadynamics refer to:
   * S. Grimme, J. Chem. Theory Comput., 2019, 155, 2847-2862
     DOI: 10.1021/acs.jctc.9b00143
   
   for SPH calculations refer to:
   * S. Spicher and S. Grimme, J. Chem. Theory Comput., 2021, 17, 1701-1714
     DOI: 10.1021/acs.jctc.0c01306
   
   with help from (in alphabetical order)
   P. Atkinson, C. Bannwarth, F. Bohle, G. Brandenburg, E. Caldeweyher
   M. Checinski, S. Dohm, S. Ehlert, S. Ehrlich, I. Gerasimov, J. Koopman
   C. Lavigne, S. Lehtola, F. März, M. Müller, F. Musil, H. Neugebauer
   J. Pisarek, C. Plett, P. Pracht, J. Seibert, P. Shushkov, S. Spicher
   M. Stahn, M. Steiner, T. Strunk, J. Stückrath, T. Rose, and J. Unsleber
   
 * started run on 2022/11/02 at 18:13:40.717     

           -------------------------------------------------
          |                Calculation Setup                |
           -------------------------------------------------

          program call               : /lustre/hpc/kemi/borup/pKalculator/dep/xtb-6.4.1/bin/xtb --gfn 2 /lustre/hpc/kemi/borup/pKalculator/calc/test#-1=7/conf01/test#-1=7_conf01_gfn2.xyz --opt --lmo --chrg -1 --uhf 0
          hostname                   : fend01.cluster
          coordinate file            : /lustre/hpc/kemi/borup/pKalculator/calc/test#-1=7/conf01/test#-1=7_conf01_gfn2.xyz
          omp threads                :                     1
          number of atoms            :                    18
          number of electrons        :                    56
          charge                     :                    -1
          spin                       :                   0.0
          first test random number   :      0.07652392774100

   ID    Z sym.   atoms
    1    6 C      1-5, 8-10
    2    7 N      6, 7
    3   16 S      11
    4    1 H      12-18

           -------------------------------------------------
          |                 G F N 2 - x T B                 |
           -------------------------------------------------

        Reference                      10.1021/acs.jctc.8b01176
      * Hamiltonian:
        H0-scaling (s, p, d)           1.850000    2.230000    2.230000
        zeta-weighting                 0.500000
      * Dispersion:
        s8                             2.700000
        a1                             0.520000
        a2                             5.000000
        s9                             5.000000
      * Repulsion:
        kExp                           1.500000    1.000000
        rExp                           1.000000
      * Coulomb:
        alpha                          2.000000
        third order                    shell-resolved
        anisotropic                    true
        a3                             3.000000
        a5                             4.000000
        cn-shift                       1.200000
        cn-exp                         4.000000
        max-rad                        5.000000


          ...................................................
          :                      SETUP                      :
          :.................................................:
          :  # basis functions                  57          :
          :  # atomic orbitals                  56          :
          :  # shells                           30          :
          :  # electrons                        56          :
          :  max. iterations                   250          :
          :  Hamiltonian                  GFN2-xTB          :
          :  restarted?                      false          :
          :  GBSA solvation                  false          :
          :  PC potential                    false          :
          :  electronic temp.          300.0000000     K    :
          :  accuracy                    1.0000000          :
          :  -> integral cutoff          0.2500000E+02      :
          :  -> integral neglect         0.1000000E-07      :
          :  -> SCF convergence          0.1000000E-05 Eh   :
          :  -> wf. convergence          0.1000000E-03 e    :
          :  Broyden damping             0.4000000          :
          ...................................................

 iter      E             dE          RMSdq      gap      omega  full diag
   1    -30.1471216 -0.301471E+02  0.439E+00    3.03       0.0  T
   2    -30.2304988 -0.833772E-01  0.387E+00    0.56       1.0  T
   3    -30.3022534 -0.717545E-01  0.191E+00    1.32       1.0  T
   4    -30.2992498  0.300359E-02  0.935E-01    1.06       1.0  T
   5    -30.3053223 -0.607247E-02  0.320E-01    1.08       1.0  T
   6    -30.3061021 -0.779816E-03  0.116E-01    1.19       1.0  T
   7    -30.3061489 -0.468650E-04  0.469E-02    1.17       1.0  T
   8    -30.3061515 -0.257499E-05  0.240E-02    1.18       1.0  T
   9    -30.3061548 -0.328876E-05  0.123E-02    1.17       1.9  T
  10    -30.3061553 -0.464559E-06  0.375E-03    1.18       6.3  T
  11    -30.3061554 -0.893404E-07  0.216E-03    1.18      10.9  T
  12    -30.3061554 -0.162100E-07  0.671E-04    1.18      35.1  T
  13    -30.3061554 -0.241947E-08  0.263E-04    1.18      89.7  T

   *** convergence criteria satisfied after 13 iterations ***

         #    Occupation            Energy/Eh            Energy/eV
      -------------------------------------------------------------
         1        2.0000           -0.5412860             -14.7291
       ...           ...                  ...                  ...
        22        2.0000           -0.2596580              -7.0657
        23        2.0000           -0.2460627              -6.6957
        24        2.0000           -0.2407065              -6.5500
        25        2.0000           -0.2298849              -6.2555
        26        2.0000           -0.1880518              -5.1171
        27        2.0000           -0.1622694              -4.4156
        28        2.0000           -0.1124155              -3.0590 (HOMO)
        29                         -0.0692159              -1.8835 (LUMO)
        30                         -0.0247780              -0.6742
        31                         -0.0188089              -0.5118
        32                         -0.0019163              -0.0521
        33                          0.0841947               2.2911
       ...                                ...                  ...
        56                          0.9098332              24.7578
      -------------------------------------------------------------
                  HL-Gap            0.0431995 Eh            1.1755 eV
             Fermi-level           -0.0908157 Eh           -2.4712 eV
 
 localization/xTB-IFF output generation
 averaging CT terms over            1  occ. levels
 averaging CT terms over            1  virt. levels
 dipole moment from electron density (au)
     X       Y       Z   
  -1.5531  -3.3062  -1.2394  total (Debye):    9.805
cpu  time for init local    0.00 s
wall time for init local    0.00 s
 doing rotations ...
 initialization of trafo matrix to unity

 converged in     44 iterations, threshold :   0.99528780D-06
 doing transformations ...
 lmo centers(Z=2) and atoms on file <lmocent.coord>
 LMO Fii/eV  ncent    charge center   contributions...
    1 sigma -13.03   1.95  -5.74244   1.67243   0.41362    7N :  0.57    6N :  0.44
    2 sigma -12.59   1.92  -6.58004  -0.08325  -0.20396    7N :  0.58    8C :  0.43
    3 sigma -12.34   1.97  -7.80285   1.50951   0.27591    7N :  0.55   16H :  0.45
    4 sigma -11.07   2.01  -7.14934  -2.34663  -0.97930   17H :  0.51    8C :  0.49
    5 sigma -10.23   1.99  -3.08844  -0.48675  -0.19697    9C :  0.52    5C :  0.48
    6 sigma -10.18   1.98   6.73950  -1.56119  -0.96053   13H :  0.51    1C :  0.50
    7 sigma -10.17   1.99   7.11400  -1.42164   1.24267   14H :  0.51    1C :  0.49
    8 sigma -10.15   1.95   5.66519  -0.03006   0.28093    1C :  0.54    2C :  0.47
    9 sigma -10.08   1.97   7.83938   0.19428  -0.12110   12H :  0.50    1C :  0.50
   10 sigma -10.06   2.01  -2.89162  -2.70598  -0.92679   18H :  0.51    9C :  0.49
   11 pi     -9.55   2.15  -4.81119  -1.28509  -1.06850    9C :  0.49    8C :  0.48
   12 pi     -9.55   2.15  -4.85026  -1.60595  -0.10377    9C :  0.49    8C :  0.48
   13 sigma  -9.40   1.96   4.39980   2.24397   0.98990   11S :  0.57    2C :  0.43
   14 pi     -9.35   2.12  -3.83585   1.43802   0.90123    6N :  0.55    5C :  0.41
   15 pi     -9.35   2.12  -3.80068   1.73011   0.02232    6N :  0.55    5C :  0.41
   16 sigma  -9.26   2.01  -1.41689   1.09622   0.39529    5C :  0.55    4C :  0.45
   17 pi     -9.19   1.52  -6.37664   0.80878   0.10089    7N :  0.80    8C :  0.10
   18 sigma  -9.11   2.01   1.86126  -1.64285  -0.39065   15H :  0.53    3C :  0.46
   19 sigma  -8.89   1.98   1.01422   0.44704   0.27211    3C :  0.54    4C :  0.46
   20 LP     -8.44   1.15   4.73181   5.28116  -0.59370   11S :  0.93
   21 LP     -8.43   1.15   4.55684   3.71915   4.09047   11S :  0.93
   22 sigma  -8.41   1.81   2.71966   3.74047   1.42874   11S :  0.66   10C :  0.33
   23 pi     -8.14   2.05   3.27103   0.37596  -0.23438    2C :  0.51    3C :  0.48
   24 pi     -8.12   2.06   3.23474   0.04015   0.77460    2C :  0.51    3C :  0.48
   25 LP     -7.42   1.03  -4.74476   4.08623   1.25618    6N :  0.99
   26 delpi  -7.07   2.28   0.35623   2.04239   1.28587    4C :  0.55   10C :  0.37
   27 delpi  -7.07   2.29   0.39133   2.34394   0.37019    4C :  0.55   10C :  0.36
   28 LP     -4.41   1.11   0.25252   5.42251   1.89773   10C :  0.95
 starting deloc pi regularization ...
 thr    2.20000000000000      # pi deloc LMO           5
 files:
 coordprot.0/xtbscreen.xyz/xtblmoinfo/lmocent.coord
 with protonation site input, xtbdock and
 LMO center info written
 

 SCC (total)                   0 d,  0 h,  0 min,  0.051 sec
 SCC setup                      ...        0 min,  0.000 sec (  0.740%)
 Dispersion                     ...        0 min,  0.000 sec (  0.498%)
 classical contributions        ...        0 min,  0.000 sec (  0.136%)
 integral evaluation            ...        0 min,  0.005 sec (  9.250%)
 iterations                     ...        0 min,  0.016 sec ( 31.738%)
 molecular gradient             ...        0 min,  0.010 sec ( 18.999%)
 printout                       ...        0 min,  0.020 sec ( 38.531%)

         :::::::::::::::::::::::::::::::::::::::::::::::::::::
         ::                     SUMMARY                     ::
         :::::::::::::::::::::::::::::::::::::::::::::::::::::
         :: total energy             -29.887157095298 Eh    ::
         :: gradient norm              0.119104343718 Eh/a0 ::
         :: HOMO-LUMO gap              1.175518833865 eV    ::
         ::.................................................::
         :: SCC energy               -30.306155375735 Eh    ::
         :: -> isotropic ES            0.110301069755 Eh    ::
         :: -> anisotropic ES          0.012972492232 Eh    ::
         :: -> anisotropic XC          0.017945032855 Eh    ::
         :: -> dispersion             -0.018410971267 Eh    ::
         :: repulsion energy           0.419043715096 Eh    ::
         :: add. restraining           0.000000000000 Eh    ::
         :: total charge              -1.000000000000 e     ::
         :::::::::::::::::::::::::::::::::::::::::::::::::::::

      ----------------------------------------------------------- 
     |                   =====================                   |
     |                        A N C O P T                        |
     |                   =====================                   |
     |               Approximate Normal Coordinate               |
     |                Rational Function Optimizer                |
      ----------------------------------------------------------- 

          ...................................................
          :                      SETUP                      :
          :.................................................:
          :   optimization level            normal          :
          :   max. optcycles                   200          :
          :   ANC micro-cycles                  20          :
          :   degrees of freedom                48          :
          :.................................................:
          :   RF solver                   davidson          :
          :   write xtbopt.log                true          :
          :   linear?                        false          :
          :   energy convergence         0.5000000E-05 Eh   :
          :   grad. convergence          0.1000000E-02 Eh/α :
          :   maximium RF displ.         1.0000000          :
          :   Hlow (freq-cutoff)         0.1000000E-01      :
          :   Hmax (freq-cutoff)         5.0000000          :
          :   S6 in model hess.         20.0000000          :
          ...................................................

generating ANC from model Hessian ...
Using Lindh-Hessian (1995)
 Shifting diagonal of input Hessian by   8.341956792419145E-003
 Lowest  eigenvalues of input Hessian
    0.000000    0.000000    0.000000    0.000000    0.000000    0.000000
    0.010000    0.011661    0.012660    0.017129    0.018467    0.030220
    0.031740    0.038942    0.043202    0.043653    0.066639    0.078336
 Highest eigenvalues
    1.688385    1.796749    1.886828    1.916746    1.984846    2.057958
 

........................................................................
.............................. CYCLE    1 ..............................
........................................................................
   1    -30.3061554 -0.303062E+02  0.107E-04    1.18       0.0  T
   2    -30.3061554 -0.343725E-10  0.635E-05    1.18     371.2  T
   3    -30.3061554 -0.568079E-11  0.444E-05    1.18     530.9  T
     SCC iter.                  ...        0 min,  0.004 sec
     gradient                   ...        0 min,  0.009 sec
 * total energy  :   -29.8871571 Eh     change       -0.1924398E-09 Eh
   gradient norm :     0.1191036 Eh/α   predicted     0.0000000E+00 (-100.00%)
   displ. norm   :     0.2529895 α      lambda       -0.1868111E-01
   maximum displ.:     0.1242588 α      in ANC's #27, #14, #9, ...

........................................................................
.............................. CYCLE    2 ..............................
........................................................................
   1    -30.3140602 -0.303141E+02  0.505E-01    1.61       0.0  T
   2    -30.3142623 -0.202060E-03  0.280E-01    1.77       1.0  T
   3    -30.3141112  0.151053E-03  0.216E-01    1.66       1.0  T
   4    -30.3144546 -0.343360E-03  0.620E-02    1.74       1.0  T
   5    -30.3144768 -0.221647E-04  0.371E-02    1.72       1.0  T
   6    -30.3144812 -0.447731E-05  0.157E-02    1.73       1.5  T
   7    -30.3144829 -0.169551E-05  0.724E-03    1.73       3.3  T
   8    -30.3144831 -0.192081E-06  0.339E-03    1.73       7.0  T
   9    -30.3144832 -0.687198E-07  0.841E-04    1.73      28.0  T
  10    -30.3144832 -0.338449E-08  0.473E-04    1.73      49.9  T
     SCC iter.                  ...        0 min,  0.011 sec
     gradient                   ...        0 min,  0.009 sec
 * total energy  :   -29.8995478 Eh     change       -0.1239071E-01 Eh
   gradient norm :     0.0469404 Eh/α   predicted    -0.9938380E-02 ( -19.79%)
   displ. norm   :     0.1757595 α      lambda       -0.4121317E-02
   maximum displ.:     0.1147086 α      in ANC's #9, #11, #27, ...

........................................................................
.............................. CYCLE    3 ..............................
........................................................................
   1    -30.3184104 -0.303184E+02  0.256E-01    1.93       0.0  T
   2    -30.3184916 -0.811840E-04  0.146E-01    2.00       1.0  T
   3    -30.3184754  0.161336E-04  0.110E-01    1.96       1.0  T
   4    -30.3185334 -0.580028E-04  0.403E-02    1.99       1.0  T
   5    -30.3185527 -0.192066E-04  0.205E-02    1.98       1.1  T
   6    -30.3185537 -0.108950E-05  0.870E-03    1.99       2.7  T
   7    -30.3185541 -0.312647E-06  0.358E-03    1.99       6.6  T
   8    -30.3185541 -0.329482E-07  0.190E-03    1.99      12.4  T
   9    -30.3185541 -0.301923E-07  0.545E-04    1.99      43.3  T
  10    -30.3185541 -0.197534E-08  0.307E-04    1.99      76.7  T
     SCC iter.                  ...        0 min,  0.011 sec
     gradient                   ...        0 min,  0.009 sec
 * total energy  :   -29.9018904 Eh     change       -0.2342551E-02 Eh
   gradient norm :     0.0138815 Eh/α   predicted    -0.2124312E-02 (  -9.32%)
   displ. norm   :     0.0621346 α      lambda       -0.3261320E-03
   maximum displ.:     0.0319855 α      in ANC's #9, #3, #11, ...

........................................................................
.............................. CYCLE    4 ..............................
........................................................................
   1    -30.3185318 -0.303185E+02  0.563E-02    2.01       0.0  T
   2    -30.3185357 -0.393258E-05  0.332E-02    2.01       1.0  T
   3    -30.3185341  0.165373E-05  0.178E-02    2.01       1.3  T
   4    -30.3185367 -0.263753E-05  0.950E-03    2.01       2.5  T
   5    -30.3185375 -0.797254E-06  0.407E-03    2.01       5.8  T
   6    -30.3185376 -0.292534E-07  0.223E-03    2.01      10.6  T
   7    -30.3185376 -0.132771E-07  0.737E-04    2.01      32.0  T
   8    -30.3185376 -0.218075E-08  0.330E-04    2.01      71.5  T
     SCC iter.                  ...        0 min,  0.010 sec
     gradient                   ...        0 min,  0.009 sec
 * total energy  :   -29.9021164 Eh     change       -0.2260313E-03 Eh
   gradient norm :     0.0078502 Eh/α   predicted    -0.1636952E-03 ( -27.58%)
   displ. norm   :     0.0661107 α      lambda       -0.1512444E-03
   maximum displ.:     0.0485746 α      in ANC's #3, #5, #7, ...

........................................................................
.............................. CYCLE    5 ..............................
........................................................................
   1    -30.3181235 -0.303181E+02  0.488E-02    2.01       0.0  T
   2    -30.3181252 -0.176231E-05  0.300E-02    2.00       1.0  T
   3    -30.3181215  0.374252E-05  0.218E-02    2.01       1.1  T
   4    -30.3181282 -0.670792E-05  0.617E-03    2.00       3.8  T
   5    -30.3181284 -0.187058E-06  0.236E-03    2.01      10.0  T
   6    -30.3181284 -0.808012E-08  0.141E-03    2.01      16.7  T
   7    -30.3181284 -0.576220E-08  0.553E-04    2.01      42.6  T
   8    -30.3181284 -0.331617E-09  0.234E-04    2.01     100.7  T
     SCC iter.                  ...        0 min,  0.009 sec
     gradient                   ...        0 min,  0.009 sec
 * total energy  :   -29.9022104 Eh     change       -0.9401961E-04 Eh
   gradient norm :     0.0042884 Eh/α   predicted    -0.7595120E-04 ( -19.22%)
   displ. norm   :     0.0459408 α      lambda       -0.3731162E-04
   maximum displ.:     0.0344599 α      in ANC's #3, #5, #4, ...

........................................................................
.............................. CYCLE    6 ..............................
........................................................................
   1    -30.3179863 -0.303180E+02  0.258E-02    2.00       0.0  T
   2    -30.3179867 -0.400819E-06  0.154E-02    2.00       1.5  T
   3    -30.3179859  0.725016E-06  0.118E-02    2.00       2.0  T
   4    -30.3179876 -0.169299E-05  0.258E-03    2.00       9.1  T
   5    -30.3179877 -0.316526E-07  0.110E-03    2.00      21.5  T
   6    -30.3179877 -0.722461E-08  0.560E-04    2.00      42.1  T
   7    -30.3179877 -0.171573E-08  0.230E-04    2.00     102.5  T
     SCC iter.                  ...        0 min,  0.008 sec
     gradient                   ...        0 min,  0.009 sec
 * total energy  :   -29.9022376 Eh     change       -0.2717740E-04 Eh
   gradient norm :     0.0026303 Eh/α   predicted    -0.1869719E-04 ( -31.20%)
   displ. norm   :     0.0620028 α      lambda       -0.3070301E-04
   maximum displ.:     0.0407781 α      in ANC's #5, #3, #4, ...

........................................................................
.............................. CYCLE    7 ..............................
........................................................................
   1    -30.3179297 -0.303179E+02  0.297E-02    2.00       0.0  T
   2    -30.3179303 -0.632756E-06  0.169E-02    1.99       1.4  T
   3    -30.3179292  0.112632E-05  0.127E-02    2.00       1.9  T
   4    -30.3179309 -0.175964E-05  0.302E-03    1.99       7.8  T
   5    -30.3179310 -0.880729E-07  0.133E-03    1.99      17.8  T
   6    -30.3179310 -0.141590E-07  0.535E-04    1.99      44.1  T
   7    -30.3179310 -0.209372E-08  0.225E-04    1.99     104.7  T
     SCC iter.                  ...        0 min,  0.008 sec
     gradient                   ...        0 min,  0.009 sec
 * total energy  :   -29.9022586 Eh     change       -0.2102927E-04 Eh
   gradient norm :     0.0016325 Eh/α   predicted    -0.1541125E-04 ( -26.72%)
   displ. norm   :     0.0899590 α      lambda       -0.1852759E-04
   maximum displ.:     0.0682294 α      in ANC's #5, #3, #4, ...

........................................................................
.............................. CYCLE    8 ..............................
........................................................................
   1    -30.3178971 -0.303179E+02  0.395E-02    2.00       0.0  T
   2    -30.3178981 -0.997809E-06  0.221E-02    2.00       1.1  T
   3    -30.3178971  0.975772E-06  0.115E-02    2.00       2.1  T
   4    -30.3178984 -0.125624E-05  0.341E-03    1.99       6.9  T
   5    -30.3178985 -0.125307E-06  0.152E-03    1.99      15.5  T
   6    -30.3178985 -0.169335E-07  0.637E-04    1.99      37.0  T
   7    -30.3178985 -0.493434E-08  0.233E-04    1.99     101.2  T
     SCC iter.                  ...        0 min,  0.008 sec
     gradient                   ...        0 min,  0.009 sec
 * total energy  :   -29.9022764 Eh     change       -0.1777038E-04 Eh
   gradient norm :     0.0027756 Eh/α   predicted    -0.9296376E-05 ( -47.69%)
   displ. norm   :     0.0601602 α      lambda       -0.1769331E-04
   maximum displ.:     0.0503354 α      in ANC's #5, #4, #2, ...

........................................................................
.............................. CYCLE    9 ..............................
........................................................................
   1    -30.3179382 -0.303179E+02  0.256E-02    2.00       0.0  T
   2    -30.3179384 -0.198346E-06  0.146E-02    2.00       1.6  T
   3    -30.3179378  0.620035E-06  0.679E-03    1.99       3.5  T
   4    -30.3179385 -0.686259E-06  0.215E-03    2.00      11.0  T
   5    -30.3179385 -0.491143E-07  0.905E-04    2.00      26.1  T
   6    -30.3179385 -0.538269E-08  0.268E-04    2.00      88.0  T
     SCC iter.                  ...        0 min,  0.007 sec
     gradient                   ...        0 min,  0.010 sec
 * total energy  :   -29.9022924 Eh     change       -0.1599355E-04 Eh
   gradient norm :     0.0028620 Eh/α   predicted    -0.8878505E-05 ( -44.49%)
   displ. norm   :     0.0896184 α      lambda       -0.3374130E-04
   maximum displ.:     0.0726469 α      in ANC's #5, #4, #2, ...

........................................................................
.............................. CYCLE   10 ..............................
........................................................................
   1    -30.3180702 -0.303181E+02  0.379E-02    2.00       0.0  T
   2    -30.3180705 -0.275811E-06  0.219E-02    2.00       1.1  T
   3    -30.3180677  0.274692E-05  0.142E-02    2.00       1.7  T
   4    -30.3180708 -0.313659E-05  0.275E-03    2.00       8.6  T
   5    -30.3180709 -0.451447E-07  0.126E-03    2.00      18.6  T
   6    -30.3180709 -0.114522E-07  0.357E-04    2.00      66.0  T
   7    -30.3180709 -0.670315E-09  0.150E-04    2.00     157.2  T
     SCC iter.                  ...        0 min,  0.008 sec
     gradient                   ...        0 min,  0.009 sec
 * total energy  :   -29.9023212 Eh     change       -0.2882594E-04 Eh
   gradient norm :     0.0023807 Eh/α   predicted    -0.1700633E-04 ( -41.00%)
   displ. norm   :     0.1470299 α      lambda       -0.4608787E-04
   maximum displ.:     0.1200108 α      in ANC's #5, #4, #2, ...

........................................................................
.............................. CYCLE   11 ..............................
........................................................................
   1    -30.3177557 -0.303178E+02  0.588E-02    2.00       0.0  T
   2    -30.3177561 -0.451403E-06  0.337E-02    2.01       1.0  T
   3    -30.3177517  0.438375E-05  0.177E-02    2.00       1.3  T
   4    -30.3177566 -0.483426E-05  0.377E-03    2.01       6.3  T
   5    -30.3177566 -0.647912E-07  0.169E-03    2.00      14.0  T
   6    -30.3177567 -0.238737E-07  0.466E-04    2.01      50.6  T
   7    -30.3177567 -0.149468E-08  0.196E-04    2.01     120.2  T
     SCC iter.                  ...        0 min,  0.008 sec
     gradient                   ...        0 min,  0.009 sec
 * total energy  :   -29.9023578 Eh     change       -0.3654853E-04 Eh
   gradient norm :     0.0031644 Eh/α   predicted    -0.2354484E-04 ( -35.58%)
   displ. norm   :     0.1843867 α      lambda       -0.5165147E-04
   maximum displ.:     0.1531633 α      in ANC's #5, #4, #2, ...

........................................................................
.............................. CYCLE   12 ..............................
........................................................................
   1    -30.3172193 -0.303172E+02  0.746E-02    2.01       0.0  T
   2    -30.3172199 -0.656617E-06  0.424E-02    2.01       1.0  T
   3    -30.3172164  0.352151E-05  0.165E-02    2.00       1.4  T
   4    -30.3172202 -0.381188E-05  0.486E-03    2.01       4.8  T
   5    -30.3172204 -0.123645E-06  0.195E-03    2.01      12.1  T
   6    -30.3172204 -0.374839E-07  0.540E-04    2.01      43.7  T
   7    -30.3172204 -0.215338E-08  0.273E-04    2.01      86.3  T
     SCC iter.                  ...        0 min,  0.008 sec
     gradient                   ...        0 min,  0.009 sec
 * total energy  :   -29.9023915 Eh     change       -0.3377958E-04 Eh
   gradient norm :     0.0050204 Eh/α   predicted    -0.2670611E-04 ( -20.94%)
   displ. norm   :     0.1153964 α      lambda       -0.5445016E-04
   maximum displ.:     0.0969301 α      in ANC's #5, #4, #1, ...

........................................................................
.............................. CYCLE   13 ..............................
........................................................................
   1    -30.3177277 -0.303177E+02  0.522E-02    2.01       0.0  T
   2    -30.3177282 -0.547084E-06  0.292E-02    2.01       1.0  T
   3    -30.3177277  0.522877E-06  0.776E-03    2.01       3.0  T
   4    -30.3177284 -0.649555E-06  0.289E-03    2.01       8.1  T
   5    -30.3177284 -0.199293E-07  0.162E-03    2.01      14.5  T
   6    -30.3177284 -0.310926E-07  0.410E-04    2.01      57.4  T
   7    -30.3177284 -0.139180E-08  0.252E-04    2.01      93.5  T
     SCC iter.                  ...        0 min,  0.008 sec
     gradient                   ...        0 min,  0.010 sec
 * total energy  :   -29.9024327 Eh     change       -0.4117260E-04 Eh
   gradient norm :     0.0044005 Eh/α   predicted    -0.2758881E-04 ( -32.99%)
   displ. norm   :     0.2096349 α      lambda       -0.6864643E-04
   maximum displ.:     0.1751739 α      in ANC's #5, #4, #2, ...

........................................................................
.............................. CYCLE   14 ..............................
........................................................................
   1    -30.3171398 -0.303171E+02  0.915E-02    2.00       0.0  T
   2    -30.3171412 -0.136354E-05  0.512E-02    2.00       1.0  T
   3    -30.3171367  0.450124E-05  0.187E-02    2.01       1.3  T
   4    -30.3171415 -0.480278E-05  0.662E-03    2.00       3.6  T
   5    -30.3171419 -0.385693E-06  0.282E-03    2.00       8.4  T
   6    -30.3171419 -0.640122E-07  0.561E-04    2.00      42.1  T
   7    -30.3171419 -0.226352E-08  0.249E-04    2.00      94.6  T
     SCC iter.                  ...        0 min,  0.008 sec
     gradient                   ...        0 min,  0.010 sec
 * total energy  :   -29.9024779 Eh     change       -0.4518896E-04 Eh
   gradient norm :     0.0047669 Eh/α   predicted    -0.3583387E-04 ( -20.70%)
   displ. norm   :     0.1297286 α      lambda       -0.1105442E-03
   maximum displ.:     0.1012537 α      in ANC's #5, #1, #4, ...

........................................................................
.............................. CYCLE   15 ..............................
........................................................................
   1    -30.3192991 -0.303193E+02  0.776E-02    1.99       0.0  T
   2    -30.3193028 -0.368182E-05  0.429E-02    1.99       1.0  T
   3    -30.3192928  0.100461E-04  0.336E-02    2.00       1.0  T
   4    -30.3193066 -0.138139E-04  0.808E-03    1.99       2.9  T
   5    -30.3193073 -0.667610E-06  0.280E-03    1.99       8.4  T
   6    -30.3193073 -0.385090E-07  0.107E-03    1.99      22.1  T
   7    -30.3193073 -0.327108E-08  0.411E-04    1.99      57.4  T
   8    -30.3193073 -0.112541E-08  0.205E-04    1.99     115.0  T
     SCC iter.                  ...        0 min,  0.010 sec
     gradient                   ...        0 min,  0.010 sec
 * total energy  :   -29.9024984 Eh     change       -0.2047607E-04 Eh
   gradient norm :     0.0041469 Eh/α   predicted    -0.5620278E-04 ( 174.48%)
   displ. norm   :     0.1989315 α      lambda       -0.7613390E-04
   maximum displ.:     0.1631691 α      in ANC's #5, #4, #2, ...

........................................................................
.............................. CYCLE   16 ..............................
........................................................................
   1    -30.3170277 -0.303170E+02  0.874E-02    1.99       0.0  T
   2    -30.3170299 -0.213775E-05  0.489E-02    1.99       1.0  T
   3    -30.3170300 -0.742844E-07  0.826E-03    1.99       2.9  T
   4    -30.3170301 -0.112690E-06  0.384E-03    1.99       6.1  T
   5    -30.3170301 -0.219319E-07  0.219E-03    1.99      10.8  T
   6    -30.3170301 -0.480818E-07  0.767E-04    1.99      30.7  T
   7    -30.3170301 -0.869919E-08  0.299E-04    1.99      78.9  T
     SCC iter.                  ...        0 min,  0.008 sec
     gradient                   ...        0 min,  0.009 sec
 * total energy  :   -29.9025198 Eh     change       -0.2142934E-04 Eh
   gradient norm :     0.0047715 Eh/α   predicted    -0.3957496E-04 (  84.68%)
   displ. norm   :     0.1149709 α      lambda       -0.4628276E-04
   maximum displ.:     0.0973284 α      in ANC's #5, #4, #2, ...

........................................................................
.............................. CYCLE   17 ..............................
........................................................................
   1    -30.3184306 -0.303184E+02  0.553E-02    2.00       0.0  T
   2    -30.3184319 -0.131850E-05  0.306E-02    2.00       1.0  T
   3    -30.3184292  0.270510E-05  0.157E-02    1.99       1.5  T
   4    -30.3184322 -0.302273E-05  0.509E-03    2.00       4.6  T
   5    -30.3184325 -0.294436E-06  0.194E-03    2.00      12.2  T
   6    -30.3184326 -0.234176E-07  0.591E-04    2.00      39.9  T
   7    -30.3184326 -0.205621E-08  0.209E-04    2.00     112.9  T
     SCC iter.                  ...        0 min,  0.008 sec
     gradient                   ...        0 min,  0.009 sec
 * total energy  :   -29.9025378 Eh     change       -0.1796627E-04 Eh
   gradient norm :     0.0013805 Eh/α   predicted    -0.2344970E-04 (  30.52%)
   displ. norm   :     0.0814172 α      lambda       -0.9839982E-05
   maximum displ.:     0.0616701 α      in ANC's #5, #1, #4, ...

........................................................................
.............................. CYCLE   18 ..............................
........................................................................
   1    -30.3183905 -0.303184E+02  0.353E-02    2.00       0.0  T
   2    -30.3183906 -0.120227E-06  0.199E-02    2.00       1.2  T
   3    -30.3183905  0.794628E-07  0.350E-03    2.00       6.7  T
   4    -30.3183906 -0.578749E-07  0.224E-03    2.00      10.5  T
   5    -30.3183906 -0.508811E-07  0.672E-04    2.00      35.1  T
   6    -30.3183906 -0.503574E-08  0.212E-04    2.00     111.0  T
     SCC iter.                  ...        0 min,  0.007 sec
     gradient                   ...        0 min,  0.010 sec
 * total energy  :   -29.9025505 Eh     change       -0.1270697E-04 Eh
   gradient norm :     0.0012715 Eh/α   predicted    -0.4932894E-05 ( -61.18%)
   displ. norm   :     0.2623871 α      lambda       -0.2588131E-04
   maximum displ.:     0.1964451 α      in ANC's #5, #1, #4, ...

........................................................................
.............................. CYCLE   19 ..............................
........................................................................
   1    -30.3174384 -0.303174E+02  0.111E-01    2.00       0.0  T
   2    -30.3174399 -0.147102E-05  0.622E-02    2.00       1.0  T
   3    -30.3174398  0.878219E-07  0.915E-03    2.00       2.6  T
   4    -30.3174400 -0.191035E-06  0.508E-03    2.00       4.6  T
   5    -30.3174401 -0.149865E-06  0.212E-03    2.00      11.1  T
   6    -30.3174402 -0.553917E-07  0.901E-04    2.00      26.2  T
   7    -30.3174402 -0.111240E-07  0.256E-04    2.00      91.9  T
     SCC iter.                  ...        0 min,  0.008 sec
     gradient                   ...        0 min,  0.010 sec
 * total energy  :   -29.9025595 Eh     change       -0.9020064E-05 Eh
   gradient norm :     0.0036443 Eh/α   predicted    -0.1333777E-04 (  47.87%)
   displ. norm   :     0.0482612 α      lambda       -0.2636990E-04
   maximum displ.:     0.0409987 α      in ANC's #5, #4, #2, ...

........................................................................
.............................. CYCLE   20 ..............................
........................................................................
   1    -30.3184635 -0.303185E+02  0.248E-02    2.00       0.0  T
   2    -30.3184639 -0.349290E-06  0.136E-02    2.00       1.7  T
   3    -30.3184638  0.471637E-07  0.375E-03    2.00       6.3  T
   4    -30.3184639 -0.832387E-07  0.149E-03    2.00      15.8  T
   5    -30.3184639 -0.107334E-07  0.686E-04    2.00      34.3  T
   6    -30.3184639 -0.227026E-08  0.318E-04    2.00      74.2  T
     SCC iter.                  ...        0 min,  0.007 sec
     gradient                   ...        0 min,  0.010 sec
 * total energy  :   -29.9025737 Eh     change       -0.1424551E-04 Eh
   gradient norm :     0.0013893 Eh/α   predicted    -0.1321555E-04 (  -7.23%)
   displ. norm   :     0.0475143 α      lambda       -0.4588875E-05
   maximum displ.:     0.0318420 α      in ANC's #5, #1, #4, ...
 * RMSD in coord.:     0.3834660 α      energy gain  -0.1541665E-01 Eh

generating ANC from model Hessian ...
Using Lindh-Hessian (1995)
 Shifting diagonal of input Hessian by   8.255197447359563E-003
 Lowest  eigenvalues of input Hessian
    0.000000    0.000000    0.000000    0.000000    0.000000    0.000000
    0.010000    0.011636    0.013018    0.017250    0.018975    0.029913
    0.032921    0.039632    0.041600    0.043645    0.070086    0.074572
 Highest eigenvalues
    1.670657    1.814914    1.887000    1.981735    2.057284    2.101195
 

........................................................................
.............................. CYCLE   21 ..............................
........................................................................
   1    -30.3186995 -0.303187E+02  0.184E-02    2.00       0.0  T
   2    -30.3186996 -0.416547E-07  0.104E-02    2.00       2.3  T
   3    -30.3186993  0.260805E-06  0.425E-03    2.00       5.5  T
   4    -30.3186996 -0.282502E-06  0.115E-03    2.00      20.5  T
   5    -30.3186996 -0.920781E-08  0.429E-04    2.00      55.0  T
   6    -30.3186996 -0.109030E-08  0.149E-04    2.00     158.0  T
     SCC iter.                  ...        0 min,  0.007 sec
     gradient                   ...        0 min,  0.009 sec
 * total energy  :   -29.9025789 Eh     change       -0.5198508E-05 Eh
   gradient norm :     0.0008962 Eh/α   predicted     0.0000000E+00 (-100.00%)
   displ. norm   :     0.0118434 α      lambda       -0.1818152E-05
   maximum displ.:     0.0098957 α      in ANC's #2, #7, #5, ...

........................................................................
.............................. CYCLE   22 ..............................
........................................................................
   1    -30.3186992 -0.303187E+02  0.842E-03    2.00       0.0  T
   2    -30.3186992 -0.221891E-07  0.481E-03    2.00       4.9  T
   3    -30.3186992  0.571374E-07  0.209E-03    2.00      11.3  T
   4    -30.3186992 -0.599463E-07  0.635E-04    2.00      37.1  T
   5    -30.3186992 -0.632216E-08  0.173E-04    2.00     136.0  T
     SCC iter.                  ...        0 min,  0.006 sec
     gradient                   ...        0 min,  0.009 sec
 * total energy  :   -29.9025808 Eh     change       -0.1893237E-05 Eh
   gradient norm :     0.0003522 Eh/α   predicted    -0.9071556E-06 ( -52.08%)
   displ. norm   :     0.0244855 α      lambda       -0.1974565E-05
   maximum displ.:     0.0221641 α      in ANC's #2, #5, #4, ...

   *** GEOMETRY OPTIMIZATION CONVERGED AFTER 22 ITERATIONS ***

------------------------------------------------------------------------
 total energy gain   :        -0.0154237 Eh       -9.6785 kcal/mol
 total RMSD          :         0.3847858 a0        0.2036 Å
 total power (kW/mol):        -1.8406827 (step)  -78.8304 (real)
------------------------------------------------------------------------

 ANCopt (total)                0 d,  0 h,  0 min,  0.514 sec
 optimizer setup                ...        0 min,  0.001 sec (  0.105%)
 model hessian                  ...        0 min,  0.005 sec (  1.036%)
 ANC generation                 ...        0 min,  0.001 sec (  0.279%)
 coordinate transformation      ...        0 min,  0.000 sec (  0.062%)
 single point calculation       ...        0 min,  0.496 sec ( 96.488%)
 optimization log               ...        0 min,  0.004 sec (  0.802%)
 hessian update                 ...        0 min,  0.000 sec (  0.060%)
 rational function              ...        0 min,  0.004 sec (  0.860%)

================
 final structure:
================
18
 xtb: 6.4.1 (afa7bdf)
C         3.61456511390769   -0.34902835837509    0.04296471498940
C         2.28365672841207    0.28775888826398    0.25817462665251
C         1.04719174633432   -0.18835815715679   -0.01620935960201
C        -0.00138308335342    0.72295071445837    0.33922109244945
C        -1.38345526206987    0.38644435043090    0.12970941410031
N        -2.39441673218174    1.22759472094904    0.33474255220199
N        -3.51657872592153    0.54562985399399    0.03899202827085
C        -3.25384050318975   -0.72269187601400   -0.35572490916832
C        -1.89670007508972   -0.87039171425939   -0.31461528277026
C         0.38328410324072    1.94109764345559    0.90744394979407
S         2.14382773725774    1.88120171448112    0.97296613424029
H         4.27035715886156    0.30226648320949   -0.54011436091244
H         3.49750837573981   -1.29383315840723   -0.49156478077213
H         4.11324222691849   -0.55097378375844    0.99555181090282
H         0.88726790538314   -1.15916127663399   -0.47112352898067
H        -4.41178812724175    0.99632067903150    0.12892711579625
H        -4.04185212833250   -1.40251793119341   -0.62763225073778
H        -1.34088845867526   -1.75430879247570   -0.56025696645433
 
 Bond Distances (Angstroems)
 ---------------------------
C1-C2=1.4910         C1-H12=1.0928        C1-H13=1.0918        C1-H14=1.0940        C2-C1=1.4910         C2-C3=1.3531         
C2-S11=1.7520        C3-C2=1.3531         C3-C4=1.4340         C3-H15=1.0840        C4-C3=1.4340         C4-C5=1.4378         
C4-C10=1.3981        C5-C4=1.4378         C5-N6=1.3310         C5-C9=1.4285         N6-C5=1.3310         N6-N7=1.3460         
N7-N6=1.3460         N7-C8=1.3541         N7-H16=1.0063        C8-N7=1.3541         C8-C9=1.3658         C8-H17=1.0757        
C9-C5=1.4285         C9-C8=1.3658         C9-H18=1.0726        C10-C4=1.3981        C10-S11=1.7628       S11-C2=1.7520        
S11-C10=1.7628       H12-C1=1.0928        H13-C1=1.0918        H14-C1=1.0940        H15-C3=1.0840        H16-N7=1.0063        
H17-C8=1.0757        H18-C9=1.0726        
 C  H  Rav=1.0852 sigma=0.0085  Rmin=1.0726  Rmax=1.0940     6
 C  C  Rav=1.4155 sigma=0.0437  Rmin=1.3531  Rmax=1.4910     7
 N  H  Rav=1.0063 sigma=0.0000  Rmin=1.0063  Rmax=1.0063     1
 N  C  Rav=1.3425 sigma=0.0115  Rmin=1.3310  Rmax=1.3541     2
 N  N  Rav=1.3460 sigma=0.0000  Rmin=1.3460  Rmax=1.3460     1
 S  C  Rav=1.7574 sigma=0.0054  Rmin=1.7520  Rmax=1.7628     2
 
 selected bond angles (degree)
 --------------------
H12-C1-C2=110.99               H13-C1-C2=110.15               H13-C1-H12=108.59              H14-C1-C2=111.10               
H14-C1-H12=107.52              H14-C1-H13=108.39              C3-C2-C1=129.50                S11-C2-C1=121.24               
S11-C2-C3=109.26               C4-C3-C2=113.22                H15-C3-C2=122.35               H15-C3-C4=124.42               
C5-C4-C3=121.20                C10-C4-C3=116.95               C10-C4-C5=121.84               N6-C5-C4=124.04                
C9-C5-C4=126.63                C9-C5-N6=109.33                N7-N6-C5=106.21                C8-N7-N6=112.14                
H16-N7-N6=119.68               H16-N7-C8=128.18               C9-C8-N7=106.58                H17-C8-N7=121.57               
H17-C8-C9=131.85               C8-C9-C5=105.74                H18-C9-C5=127.60               H18-C9-C8=126.66               
S11-C10-C4=105.09              
 
 selected dihedral angles (degree)
 ---------------------------------
C3-C2-C1-H12=125.87           C3-C2-C1-H13=  5.56           C3-C2-C1-H14=245.45           S11-C2-C1-H12=305.38          
S11-C2-C1-H13=185.07          S11-C2-C1-H14= 64.96          C4-C3-C2-C1=179.84            C4-C3-C2-S11=  0.29           
H15-C3-C2-C1=359.11           H15-C3-C2-S11=179.56          C5-C4-C3-C2=180.41            C5-C4-C3-H15=  1.16           
C10-C4-C3-C2=359.82           C10-C4-C3-H15=180.57          N6-C5-C4-C3=185.76            N6-C5-C4-C10=  6.38           
C9-C5-C4-C3=  6.07            C9-C5-C4-C10=186.69           N7-N6-C5-C4=180.38            N7-N6-C5-C9=  0.12            
C8-N7-N6-C5=359.94            H16-N7-N6-C5=179.77           C9-C8-N7-N6=359.97            C9-C8-N7-H16=180.16           
H17-C8-N7-N6=179.94           H17-C8-N7-H16=  0.12          C8-C9-C5-C4=179.59            C8-C9-C5-N6=359.86            
H18-C9-C5-C4=  0.00           H18-C9-C5-N6=180.28           C5-C9-C8-N7=  0.10            C5-C9-C8-H17=180.14           
H18-C9-C8-N7=179.69           H18-C9-C8-H17=359.73          S11-C10-C4-C3=  0.00          S11-C10-C4-C5=179.38          
           -------------------------------------------------
          |                Final Singlepoint                |
           -------------------------------------------------

          ...................................................
          :                      SETUP                      :
          :.................................................:
          :  # basis functions                  57          :
          :  # atomic orbitals                  56          :
          :  # shells                           30          :
          :  # electrons                        56          :
          :  max. iterations                   250          :
          :  Hamiltonian                  GFN2-xTB          :
          :  restarted?                      false          :
          :  GBSA solvation                  false          :
          :  PC potential                    false          :
          :  electronic temp.          300.0000000     K    :
          :  accuracy                    1.0000000          :
          :  -> integral cutoff          0.2500000E+02      :
          :  -> integral neglect         0.1000000E-07      :
          :  -> SCF convergence          0.1000000E-05 Eh   :
          :  -> wf. convergence          0.1000000E-03 e    :
          :  Broyden damping             0.4000000          :
          ...................................................

 iter      E             dE          RMSdq      gap      omega  full diag
   1    -30.3186992 -0.303187E+02  0.798E-05    2.00       0.0  T
   2    -30.3186992 -0.614619E-11  0.620E-05    2.00     379.9  T
   3    -30.3186992 -0.427676E-10  0.290E-05    2.00     812.7  T

   *** convergence criteria satisfied after 3 iterations ***

         #    Occupation            Energy/Eh            Energy/eV
      -------------------------------------------------------------
         1        2.0000           -0.5402160             -14.7000
       ...           ...                  ...                  ...
        22        2.0000           -0.2546649              -6.9298
        23        2.0000           -0.2478340              -6.7439
        24        2.0000           -0.2343922              -6.3781
        25        2.0000           -0.2236007              -6.0845
        26        2.0000           -0.1898114              -5.1650
        27        2.0000           -0.1621624              -4.4127
        28        2.0000           -0.1386000              -3.7715 (HOMO)
        29                         -0.0651463              -1.7727 (LUMO)
        30                         -0.0331795              -0.9029
        31                         -0.0194028              -0.5280
        32                          0.0055630               0.1514
        33                          0.0829226               2.2564
       ...                                ...                  ...
        56                          0.8805912              23.9621
      -------------------------------------------------------------
                  HL-Gap            0.0734537 Eh            1.9988 eV
             Fermi-level           -0.1018731 Eh           -2.7721 eV
 
 localization/xTB-IFF output generation
 averaging CT terms over            1  occ. levels
 averaging CT terms over            1  virt. levels
 dipole moment from electron density (au)
     X       Y       Z   
  -1.4381  -3.2419  -1.5266  total (Debye):    9.814
cpu  time for init local    0.00 s
wall time for init local    0.00 s
 doing rotations ...
 initialization of trafo matrix to unity
iteration     50  convergence  0.35078696D-05

 converged in     52 iterations, threshold :   0.98077070D-06
 doing transformations ...
 lmo centers(Z=2) and atoms on file <lmocent.coord>
 LMO Fii/eV  ncent    charge center   contributions...
    1 sigma -12.85   1.95  -5.67072   1.64326   0.38057    7N :  0.57    6N :  0.44
    2 sigma -12.58   1.92  -6.52225  -0.08303  -0.12128    7N :  0.59    8C :  0.42
    3 sigma -12.38   1.97  -7.70008   1.54633   0.18280    7N :  0.56   16H :  0.44
    4 sigma -11.05   2.01  -7.15714  -2.23554  -1.02010   17H :  0.51    8C :  0.48
    5 sigma -10.26   1.98   6.67034  -1.85022  -0.59432   13H :  0.51    1C :  0.50
    6 sigma -10.20   1.98   7.43076  -0.90715   1.28410   14H :  0.50    1C :  0.50
    7 sigma -10.20   1.96   5.62261  -0.07148   0.28046    1C :  0.54    2C :  0.47
    8 sigma -10.18   1.98   7.63254   0.16685  -0.65293   12H :  0.50    1C :  0.50
    9 sigma -10.15   1.99  -3.01396  -0.53545  -0.19233    9C :  0.52    5C :  0.48
   10 sigma -10.04   2.01  -2.87006  -2.76942  -0.90757   18H :  0.51    9C :  0.49
   11 sigma  -9.57   1.96   4.28890   2.05115   1.16948   11S :  0.57    2C :  0.43
   12 pi     -9.49   2.15  -4.79747  -1.61168  -0.13116    9C :  0.49    8C :  0.47
   13 sigma  -9.47   1.99  -1.36622   1.04002   0.42955    5C :  0.54    4C :  0.45
   14 pi     -9.46   2.16  -4.72120  -1.28658  -1.09345    9C :  0.49    8C :  0.47
   15 pi     -9.35   1.55  -6.31565   0.81279  -0.17781    7N :  0.79    8C :  0.12
   16 pi     -9.28   2.10  -3.75880   1.42245   0.87830    6N :  0.56    5C :  0.41
   17 pi     -9.27   2.11  -3.69888   1.70363  -0.00040    6N :  0.56    5C :  0.40
   18 sigma  -9.22   2.01   1.76760  -1.60896  -0.61693   15H :  0.53    3C :  0.47
   19 sigma  -9.16   1.99   0.97822   0.42856   0.27501    3C :  0.53    4C :  0.47
   20 LP     -8.42   1.15   4.75106   5.21585  -0.05953   11S :  0.93
   21 LP     -8.42   1.15   4.51359   3.19590   4.38941   11S :  0.93
   22 sigma  -8.35   1.78   2.63199   3.61751   1.79218   11S :  0.68   10C :  0.32
   23 pi     -8.29   2.07   3.18716   0.35877  -0.23071    2C :  0.51    3C :  0.47
   24 pi     -8.29   2.08   3.13968  -0.07814   0.73104    2C :  0.51    3C :  0.48
   25 LP     -7.26   1.02  -4.61582   4.08182   1.19342    6N :  0.99
   26 delpi  -7.10   2.30   0.32021   2.35388   0.58866    4C :  0.55   10C :  0.37
   27 delpi  -7.04   2.34   0.24632   1.94415   1.42240    4C :  0.55   10C :  0.36
   28 LP     -5.07   1.08   0.06819   5.35370   2.45357   10C :  0.96
 starting deloc pi regularization ...
 thr    2.20000000000000      # pi deloc LMO           5
 files:
 coordprot.0/xtbscreen.xyz/xtblmoinfo/lmocent.coord
 with protonation site input, xtbdock and
 LMO center info written
 

 SCC (total)                   0 d,  0 h,  0 min,  0.033 sec
 SCC setup                      ...        0 min,  0.000 sec (  0.454%)
 Dispersion                     ...        0 min,  0.000 sec (  0.334%)
 classical contributions        ...        0 min,  0.000 sec (  0.105%)
 integral evaluation            ...        0 min,  0.004 sec ( 12.993%)
 iterations                     ...        0 min,  0.004 sec ( 11.884%)
 molecular gradient             ...        0 min,  0.009 sec ( 28.339%)
 printout                       ...        0 min,  0.015 sec ( 45.756%)

         :::::::::::::::::::::::::::::::::::::::::::::::::::::
         ::                     SUMMARY                     ::
         :::::::::::::::::::::::::::::::::::::::::::::::::::::
         :: total energy             -29.902580834231 Eh    ::
         :: gradient norm              0.000352335664 Eh/a0 ::
         :: HOMO-LUMO gap              1.998778267751 eV    ::
         ::.................................................::
         :: SCC energy               -30.318699237953 Eh    ::
         :: -> isotropic ES            0.107861152436 Eh    ::
         :: -> anisotropic ES          0.011611885077 Eh    ::
         :: -> anisotropic XC          0.018211694010 Eh    ::
         :: -> dispersion             -0.018535218675 Eh    ::
         :: repulsion energy           0.416161766885 Eh    ::
         :: add. restraining           0.000000000000 Eh    ::
         :: total charge              -1.000000000000 e     ::
         :::::::::::::::::::::::::::::::::::::::::::::::::::::

           -------------------------------------------------
          |                Property Printout                |
           -------------------------------------------------

    * Orbital Energies and Occupations

         #    Occupation            Energy/Eh            Energy/eV
      -------------------------------------------------------------
         1        2.0000           -0.5402160             -14.7000
       ...           ...                  ...                  ...
        16        2.0000           -0.3360555              -9.1445
        17        2.0000           -0.3261550              -8.8751
        18        2.0000           -0.3155952              -8.5878
        19        2.0000           -0.2770658              -7.5393
        20        2.0000           -0.2703706              -7.3572
        21        2.0000           -0.2631821              -7.1615
        22        2.0000           -0.2546649              -6.9298
        23        2.0000           -0.2478340              -6.7439
        24        2.0000           -0.2343922              -6.3781
        25        2.0000           -0.2236007              -6.0845
        26        2.0000           -0.1898114              -5.1650
        27        2.0000           -0.1621624              -4.4127
        28        2.0000           -0.1386000              -3.7715 (HOMO)
        29                         -0.0651463              -1.7727 (LUMO)
        30                         -0.0331795              -0.9029
        31                         -0.0194028              -0.5280
        32                          0.0055630               0.1514
        33                          0.0829226               2.2564
        34                          0.0851586               2.3173
        35                          0.1463447               3.9822
        36                          0.1956584               5.3241
        37                          0.2102081               5.7201
        38                          0.2294587               6.2439
        39                          0.2527705               6.8782
       ...                                ...                  ...
        56                          0.8805912              23.9621
      -------------------------------------------------------------
                  HL-Gap            0.0734537 Eh            1.9988 eV
             Fermi-level           -0.1018731 Eh           -2.7721 eV

     #   Z          covCN         q      C6AA      α(0)
     1   6 C        3.768    -0.076    21.982     6.682
     2   6 C        2.973     0.004    27.920     8.667
     3   6 C        3.105    -0.066    29.494     8.898
     4   6 C        3.216    -0.044    28.367     8.664
     5   6 C        3.122     0.069    26.286     8.396
     6   7 N        1.987    -0.268    27.757     7.813
     7   7 N        2.974    -0.031    21.838     6.941
     8   6 C        2.977    -0.019    28.479     8.754
     9   6 C        3.024    -0.085    30.108     9.000
    10   6 C        1.973    -0.220    37.536     9.894
    11  16 S        2.397    -0.323   155.095    20.960
    12   1 H        0.924     0.010     2.892     2.659
    13   1 H        0.924    -0.001     3.071     2.740
    14   1 H        0.924     0.007     2.934     2.678
    15   1 H        0.925    -0.051     4.123     3.175
    16   1 H        0.860     0.122     1.607     1.986
    17   1 H        0.926    -0.019     3.403     2.885
    18   1 H        0.926    -0.012     3.266     2.826

 Mol. C6AA /au·bohr⁶  :       5962.459700
 Mol. C8AA /au·bohr⁸  :     164555.034922
 Mol. α(0) /au        :        123.621286


Wiberg/Mayer (AO) data.
largest (>0.10) Wiberg bond orders for each atom

 ---------------------------------------------------------------------------
     #   Z sym  total        # sym  WBO       # sym  WBO       # sym  WBO
 ---------------------------------------------------------------------------
     1   6 C    3.994 --     2 C    1.022    13 H    0.984    12 H    0.980
                            14 H    0.978
     2   6 C    3.935 --     3 C    1.635    11 S    1.097     1 C    1.022
                            10 C    0.108
     3   6 C    3.974 --     2 C    1.635     4 C    1.196    15 H    0.959
     4   6 C    3.952 --    10 C    1.482     3 C    1.196     5 C    1.120
     5   6 C    3.963 --     6 N    1.444     9 C    1.249     4 C    1.120
     6   7 N    2.927 --     5 C    1.444     7 N    1.160     8 C    0.161
     7   7 N    3.565 --     8 C    1.240     6 N    1.160    16 H    0.955
                             9 C    0.103
     8   6 C    3.947 --     9 C    1.556     7 N    1.240    17 H    0.968
                             6 N    0.161
     9   6 C    3.970 --     8 C    1.556     5 C    1.249    18 H    0.973
                             7 N    0.103
    10   6 C    2.976 --     4 C    1.482    11 S    1.229     2 C    0.108
    11  16 S    2.530 --    10 C    1.229     2 C    1.097
    12   1 H    0.999 --     1 C    0.980
    13   1 H    1.000 --     1 C    0.984
    14   1 H    0.999 --     1 C    0.978
    15   1 H    0.997 --     3 C    0.959
    16   1 H    0.985 --     7 N    0.955
    17   1 H    0.999 --     8 C    0.968
    18   1 H    1.000 --     9 C    0.973
 ---------------------------------------------------------------------------

Topologies differ in total number of bonds
Writing topology from bond orders to xtbtopo.mol

molecular dipole:
                 x           y           z       tot (Debye)
 q only:       -1.233      -1.943      -0.977
   full:       -1.438      -3.242      -1.527       9.814
molecular quadrupole (traceless):
                xx          xy          yy          xz          yz          zz
 q only:       -3.640      -7.215      -3.423      -3.853      -6.261       7.063
  q+dip:        5.007      -7.923     -10.007      -3.888      -9.074       4.999
   full:        4.084      -7.881     -10.640      -4.063     -10.061       6.557

           -------------------------------------------------
          |                Geometry Summary                 |
           -------------------------------------------------

      molecular mass/u    :      163.2196663
   center of mass at/Å    :       -0.0093517       0.5805850       0.2864624
  moments of inertia/u·Å² :        0.1772745E+03   0.9408028E+03   0.1114064E+04
rotational constants/cm⁻¹ :        0.9509337E-01   0.1791835E-01   0.1513166E-01

 * 16 selected distances

     #   Z          #   Z                                           value/Å
     2   6 C        3   6 C                                       1.3530778
     3   6 C        4   6 C                                       1.4339888
     4   6 C        5   6 C                                       1.4377953
     5   6 C        6   7 N                                       1.3310205
     6   7 N        7   7 N                                       1.3460282
     7   7 N        8   6 C                                       1.3540579
     5   6 C        9   6 C                                       1.4284543
     8   6 C        9   6 C                                       1.3657728
     2   6 C       11  16 S                                       1.7520100 (max)
     1   6 C       12   1 H                                       1.0928080
     1   6 C       13   1 H                                       1.0918242
     1   6 C       14   1 H                                       1.0940215
     3   6 C       15   1 H                                       1.0839655
     7   7 N       16   1 H                                       1.0062855 (min)
     8   6 C       17   1 H                                       1.0756670
     9   6 C       18   1 H                                       1.0726490

 * 6 distinct bonds (by element types)

   Z      Z             #   av. dist./Å        max./Å        min./Å
   1 H    6 C           6     1.0851559     1.0940215     1.0726490
   6 C    6 C           5     1.4038178     1.4377953     1.3530778
   1 H    7 N           1     1.0062855     1.0062855     1.0062855
   6 C    7 N           2     1.3425392     1.3540579     1.3310205
   7 N    7 N           1     1.3460282     1.3460282     1.3460282
   6 C   16 S           1     1.7520100     1.7520100     1.7520100


optimized geometry written to: xtbopt.xyz


           -------------------------------------------------
          | TOTAL ENERGY              -29.902580834231 Eh   |
          | GRADIENT NORM               0.000352335664 Eh/α |
          | HOMO-LUMO GAP               1.998778267751 eV   |
           -------------------------------------------------

------------------------------------------------------------------------
 * finished run on 2022/11/02 at 18:13:41.407     
------------------------------------------------------------------------
 total:
 * wall-time:     0 d,  0 h,  0 min,  0.690 sec
 *  cpu-time:     0 d,  0 h,  0 min,  0.625 sec
 * ratio c/w:     0.906 speedup
 SCF:
 * wall-time:     0 d,  0 h,  0 min,  0.051 sec
 *  cpu-time:     0 d,  0 h,  0 min,  0.044 sec
 * ratio c/w:     0.861 speedup
 ANC optimizer:
 * wall-time:     0 d,  0 h,  0 min,  0.551 sec
 *  cpu-time:     0 d,  0 h,  0 min,  0.545 sec
 * ratio c/w:     0.989 speedup

