      -----------------------------------------------------------      
     |                   =====================                   |     
     |                           x T B                           |     
     |                   =====================                   |     
     |                         S. Grimme                         |     
     |          Mulliken Center for Theoretical Chemistry        |     
     |                    University of Bonn                     |     
      -----------------------------------------------------------      

   * xtb version 6.4.1 (afa7bdf) compiled by 'ehlert@majestix' on 2021-06-10

   xtb is free software: you can redistribute it and/or modify it under
   the terms of the GNU Lesser General Public License as published by
   the Free Software Foundation, either version 3 of the License, or
   (at your option) any later version.
   
   xtb is distributed in the hope that it will be useful,
   but WITHOUT ANY WARRANTY; without even the implied warranty of
   MERCHANTABILITY or FITNESS FOR A PARTICULAR PURPOSE.  See the
   GNU Lesser General Public License for more details.
   
   Cite this work as:
   * C. Bannwarth, E. Caldeweyher, S. Ehlert, A. Hansen, P. Pracht,
     J. Seibert, S. Spicher, S. Grimme, WIREs Comput. Mol. Sci., 2020, 11,
     e01493. DOI: 10.1002/wcms.1493
   
   for GFN2-xTB:
   * C. Bannwarth, S. Ehlert and S. Grimme., J. Chem. Theory Comput., 2019,
     15, 1652-1671. DOI: 10.1021/acs.jctc.8b01176
   for GFN1-xTB:
   * S. Grimme, C. Bannwarth, P. Shushkov, J. Chem. Theory Comput., 2017,
     13, 1989-2009. DOI: 10.1021/acs.jctc.7b00118
   for GFN0-xTB:
   * P. Pracht, E. Caldeweyher, S. Ehlert, S. Grimme, ChemRxiv, 2019, preprint.
     DOI: 10.26434/chemrxiv.8326202.v1
   for GFN-FF:
   * S. Spicher and S. Grimme, Angew. Chem. Int. Ed., 2020, 59, 15665-15673.
     DOI: 10.1002/anie.202004239
   
   for DFT-D4:
   * E. Caldeweyher, C. Bannwarth and S. Grimme, J. Chem. Phys., 2017,
     147, 034112. DOI: 10.1063/1.4993215
   * E. Caldeweyher, S. Ehlert, A. Hansen, H. Neugebauer, S. Spicher,
     C. Bannwarth and S. Grimme, J. Chem. Phys., 2019, 150, 154122.
     DOI: 10.1063/1.5090222
   * E. Caldeweyher, J.-M. Mewes, S. Ehlert and S. Grimme, Phys. Chem. Chem. Phys.
     2020, 22, 8499-8512. DOI: 10.1039/D0CP00502A
   
   for sTDA-xTB:
   * S. Grimme and C. Bannwarth, J. Chem. Phys., 2016, 145, 054103.
     DOI: 10.1063/1.4959605
   
   in the mass-spec context:
   * V. Asgeirsson, C. Bauer and S. Grimme, Chem. Sci., 2017, 8, 4879.
     DOI: 10.1039/c7sc00601b
   * J. Koopman and S. Grimme, ACS Omega 2019, 4, 12, 15120-15133.
     DOI: 10.1021/acsomega.9b02011
   
   for metadynamics refer to:
   * S. Grimme, J. Chem. Theory Comput., 2019, 155, 2847-2862
     DOI: 10.1021/acs.jctc.9b00143
   
   for SPH calculations refer to:
   * S. Spicher and S. Grimme, J. Chem. Theory Comput., 2021, 17, 1701-1714
     DOI: 10.1021/acs.jctc.0c01306
   
   with help from (in alphabetical order)
   P. Atkinson, C. Bannwarth, F. Bohle, G. Brandenburg, E. Caldeweyher
   M. Checinski, S. Dohm, S. Ehlert, S. Ehrlich, I. Gerasimov, J. Koopman
   C. Lavigne, S. Lehtola, F. März, M. Müller, F. Musil, H. Neugebauer
   J. Pisarek, C. Plett, P. Pracht, J. Seibert, P. Shushkov, S. Spicher
   M. Stahn, M. Steiner, T. Strunk, J. Stückrath, T. Rose, and J. Unsleber
   
 * started run on 2022/11/02 at 18:13:40.720     

           -------------------------------------------------
          |                Calculation Setup                |
           -------------------------------------------------

          program call               : /lustre/hpc/kemi/borup/pKalculator/dep/xtb-6.4.1/bin/xtb --gfn 2 /lustre/hpc/kemi/borup/pKalculator/calc/test#-1=7/conf06/test#-1=7_conf06_gfn2.xyz --opt --lmo --chrg -1 --uhf 0
          hostname                   : fend01.cluster
          coordinate file            : /lustre/hpc/kemi/borup/pKalculator/calc/test#-1=7/conf06/test#-1=7_conf06_gfn2.xyz
          omp threads                :                     1
          number of atoms            :                    18
          number of electrons        :                    56
          charge                     :                    -1
          spin                       :                   0.0
          first test random number   :      0.03707656178228

   ID    Z sym.   atoms
    1    6 C      1-5, 8-10
    2    7 N      6, 7
    3   16 S      11
    4    1 H      12-18

           -------------------------------------------------
          |                 G F N 2 - x T B                 |
           -------------------------------------------------

        Reference                      10.1021/acs.jctc.8b01176
      * Hamiltonian:
        H0-scaling (s, p, d)           1.850000    2.230000    2.230000
        zeta-weighting                 0.500000
      * Dispersion:
        s8                             2.700000
        a1                             0.520000
        a2                             5.000000
        s9                             5.000000
      * Repulsion:
        kExp                           1.500000    1.000000
        rExp                           1.000000
      * Coulomb:
        alpha                          2.000000
        third order                    shell-resolved
        anisotropic                    true
        a3                             3.000000
        a5                             4.000000
        cn-shift                       1.200000
        cn-exp                         4.000000
        max-rad                        5.000000


          ...................................................
          :                      SETUP                      :
          :.................................................:
          :  # basis functions                  57          :
          :  # atomic orbitals                  56          :
          :  # shells                           30          :
          :  # electrons                        56          :
          :  max. iterations                   250          :
          :  Hamiltonian                  GFN2-xTB          :
          :  restarted?                      false          :
          :  GBSA solvation                  false          :
          :  PC potential                    false          :
          :  electronic temp.          300.0000000     K    :
          :  accuracy                    1.0000000          :
          :  -> integral cutoff          0.2500000E+02      :
          :  -> integral neglect         0.1000000E-07      :
          :  -> SCF convergence          0.1000000E-05 Eh   :
          :  -> wf. convergence          0.1000000E-03 e    :
          :  Broyden damping             0.4000000          :
          ...................................................

 iter      E             dE          RMSdq      gap      omega  full diag
   1    -30.1469475 -0.301469E+02  0.418E+00    3.03       0.0  T
   2    -30.2301039 -0.831564E-01  0.365E+00    0.56       1.0  T
   3    -30.3022372 -0.721333E-01  0.181E+00    1.32       1.0  T
   4    -30.2991324  0.310481E-02  0.906E-01    1.06       1.0  T
   5    -30.3052847 -0.615229E-02  0.305E-01    1.07       1.0  T
   6    -30.3060069 -0.722253E-03  0.113E-01    1.19       1.0  T
   7    -30.3060517 -0.448355E-04  0.463E-02    1.17       1.0  T
   8    -30.3060544 -0.268462E-05  0.234E-02    1.17       1.0  T
   9    -30.3060578 -0.332953E-05  0.118E-02    1.17       2.0  T
  10    -30.3060582 -0.445086E-06  0.370E-03    1.17       6.4  T
  11    -30.3060583 -0.842739E-07  0.213E-03    1.17      11.0  T
  12    -30.3060583 -0.174972E-07  0.649E-04    1.17      36.3  T
  13    -30.3060583 -0.242483E-08  0.260E-04    1.17      90.5  T

   *** convergence criteria satisfied after 13 iterations ***

         #    Occupation            Energy/Eh            Energy/eV
      -------------------------------------------------------------
         1        2.0000           -0.5413305             -14.7304
       ...           ...                  ...                  ...
        22        2.0000           -0.2596722              -7.0660
        23        2.0000           -0.2460604              -6.6956
        24        2.0000           -0.2407750              -6.5518
        25        2.0000           -0.2299594              -6.2575
        26        2.0000           -0.1879713              -5.1150
        27        2.0000           -0.1622338              -4.4146
        28        2.0000           -0.1123695              -3.0577 (HOMO)
        29                         -0.0692655              -1.8848 (LUMO)
        30                         -0.0247907              -0.6746
        31                         -0.0189607              -0.5159
        32                         -0.0022863              -0.0622
        33                          0.0840783               2.2879
       ...                                ...                  ...
        56                          0.9100703              24.7643
      -------------------------------------------------------------
                  HL-Gap            0.0431041 Eh            1.1729 eV
             Fermi-level           -0.0908175 Eh           -2.4713 eV
 
 localization/xTB-IFF output generation
 averaging CT terms over            1  occ. levels
 averaging CT terms over            1  virt. levels
 dipole moment from electron density (au)
     X       Y       Z   
   1.2686  -3.0455  -1.9584  total (Debye):    9.752
cpu  time for init local    0.00 s
wall time for init local    0.00 s
 doing rotations ...
 initialization of trafo matrix to unity

 converged in     49 iterations, threshold :   0.99330707D-06
 doing transformations ...
 lmo centers(Z=2) and atoms on file <lmocent.coord>
 LMO Fii/eV  ncent    charge center   contributions...
    1 sigma -13.03   1.95   5.86336   1.08397   0.57314    7N :  0.57    6N :  0.44
    2 sigma -12.59   1.92   6.54566  -0.53052  -0.47244    7N :  0.58    8C :  0.43
    3 sigma -12.34   1.97   7.90204   0.79158   0.34747    7N :  0.55   16H :  0.45
    4 sigma -11.07   2.01   6.91621  -2.57578  -1.78783   17H :  0.51    8C :  0.49
    5 sigma -10.23   1.99   3.03254  -0.63922  -0.47527    9C :  0.52    5C :  0.48
    6 sigma -10.18   1.98  -6.93211  -0.45636  -1.29275   13H :  0.51    1C :  0.49
    7 sigma -10.17   1.99  -7.06415  -1.30297   0.77812   14H :  0.51    1C :  0.49
    8 sigma -10.15   1.95  -5.64490   0.36480   0.34693    1C :  0.54    2C :  0.47
    9 sigma -10.07   1.97  -7.83384   0.75449   0.35726   12H :  0.50    1C :  0.50
   10 sigma -10.06   2.01   2.64443  -2.59009  -1.71570   18H :  0.51    9C :  0.49
   11 pi     -9.55   2.15   4.67697  -1.33789  -1.55744    9C :  0.49    8C :  0.48
   12 pi     -9.55   2.15   4.69328  -1.88601  -0.70063    9C :  0.49    8C :  0.48
   13 sigma  -9.39   1.96  -4.19234   2.30002   1.54460   11S :  0.57    2C :  0.43
   14 pi     -9.35   2.12   3.94608   0.89289   1.03737    6N :  0.55    5C :  0.41
   15 pi     -9.35   2.12   3.93139   1.39213   0.25666    6N :  0.55    5C :  0.41
   16 sigma  -9.26   2.01   1.50423   0.88115   0.52572    5C :  0.55    4C :  0.45
   17 pi     -9.19   1.52   6.42027   0.27406   0.04409    7N :  0.80    8C :  0.10
   18 sigma  -9.10   2.01  -1.99443  -1.32313  -0.80036   15H :  0.53    3C :  0.46
   19 sigma  -8.89   1.98  -0.97244   0.47324   0.31805    3C :  0.54    4C :  0.46
   20 LP     -8.44   1.15  -4.29162   5.64118   0.74273   11S :  0.93
   21 LP     -8.44   1.15  -4.19990   2.98987   4.90954   11S :  0.93
   22 sigma  -8.41   1.81  -2.39173   3.51302   2.27865   11S :  0.66   10C :  0.33
   23 pi     -8.14   2.05  -3.23132   0.69982  -0.12352    2C :  0.51    3C :  0.48
   24 pi     -8.11   2.06  -3.21250   0.12898   0.77508    2C :  0.51    3C :  0.48
   25 LP     -7.42   1.03   5.07764   3.29231   2.00056    6N :  0.99
   26 delpi  -7.07   2.28  -0.17904   1.72014   1.66474    4C :  0.55   10C :  0.36
   27 delpi  -7.07   2.29  -0.19598   2.23575   0.84996    4C :  0.55   10C :  0.36
   28 LP     -4.41   1.11   0.20972   4.83573   3.06427   10C :  0.95
 starting deloc pi regularization ...
 thr    2.20000000000000      # pi deloc LMO           5
 files:
 coordprot.0/xtbscreen.xyz/xtblmoinfo/lmocent.coord
 with protonation site input, xtbdock and
 LMO center info written
 

 SCC (total)                   0 d,  0 h,  0 min,  0.049 sec
 SCC setup                      ...        0 min,  0.000 sec (  0.707%)
 Dispersion                     ...        0 min,  0.000 sec (  0.495%)
 classical contributions        ...        0 min,  0.000 sec (  0.127%)
 integral evaluation            ...        0 min,  0.005 sec (  9.525%)
 iterations                     ...        0 min,  0.016 sec ( 31.777%)
 molecular gradient             ...        0 min,  0.010 sec ( 19.701%)
 printout                       ...        0 min,  0.018 sec ( 37.560%)

         :::::::::::::::::::::::::::::::::::::::::::::::::::::
         ::                     SUMMARY                     ::
         :::::::::::::::::::::::::::::::::::::::::::::::::::::
         :: total energy             -29.886878944065 Eh    ::
         :: gradient norm              0.119410136088 Eh/a0 ::
         :: HOMO-LUMO gap              1.172921824899 eV    ::
         ::.................................................::
         :: SCC energy               -30.306058304880 Eh    ::
         :: -> isotropic ES            0.110328921769 Eh    ::
         :: -> anisotropic ES          0.012933172650 Eh    ::
         :: -> anisotropic XC          0.017937961124 Eh    ::
         :: -> dispersion             -0.018412180329 Eh    ::
         :: repulsion energy           0.419224548998 Eh    ::
         :: add. restraining           0.000000000000 Eh    ::
         :: total charge              -1.000000000000 e     ::
         :::::::::::::::::::::::::::::::::::::::::::::::::::::

      ----------------------------------------------------------- 
     |                   =====================                   |
     |                        A N C O P T                        |
     |                   =====================                   |
     |               Approximate Normal Coordinate               |
     |                Rational Function Optimizer                |
      ----------------------------------------------------------- 

          ...................................................
          :                      SETUP                      :
          :.................................................:
          :   optimization level            normal          :
          :   max. optcycles                   200          :
          :   ANC micro-cycles                  20          :
          :   degrees of freedom                48          :
          :.................................................:
          :   RF solver                   davidson          :
          :   write xtbopt.log                true          :
          :   linear?                        false          :
          :   energy convergence         0.5000000E-05 Eh   :
          :   grad. convergence          0.1000000E-02 Eh/α :
          :   maximium RF displ.         1.0000000          :
          :   Hlow (freq-cutoff)         0.1000000E-01      :
          :   Hmax (freq-cutoff)         5.0000000          :
          :   S6 in model hess.         20.0000000          :
          ...................................................

generating ANC from model Hessian ...
Using Lindh-Hessian (1995)
 Shifting diagonal of input Hessian by   8.335003164306970E-003
 Lowest  eigenvalues of input Hessian
    0.000000    0.000000    0.000000    0.000000    0.000000    0.000000
    0.010000    0.011656    0.012653    0.017169    0.018476    0.030218
    0.031680    0.038970    0.043289    0.043682    0.066631    0.078396
 Highest eigenvalues
    1.688865    1.796612    1.887186    1.916937    1.984833    2.058290
 

........................................................................
.............................. CYCLE    1 ..............................
........................................................................
   1    -30.3060583 -0.303061E+02  0.105E-04    1.17       0.0  T
   2    -30.3060583 -0.336122E-10  0.634E-05    1.17     371.9  T
   3    -30.3060583 -0.518696E-11  0.445E-05    1.17     529.7  T
     SCC iter.                  ...        0 min,  0.004 sec
     gradient                   ...        0 min,  0.009 sec
 * total energy  :   -29.8868789 Eh     change       -0.1951577E-09 Eh
   gradient norm :     0.1194093 Eh/α   predicted     0.0000000E+00 (-100.00%)
   displ. norm   :     0.2537471 α      lambda       -0.1873012E-01
   maximum displ.:     0.1233436 α      in ANC's #27, #14, #9, ...

........................................................................
.............................. CYCLE    2 ..............................
........................................................................
   1    -30.3138226 -0.303138E+02  0.497E-01    1.61       0.0  T
   2    -30.3140236 -0.201024E-03  0.271E-01    1.76       1.0  T
   3    -30.3138749  0.148665E-03  0.212E-01    1.66       1.0  T
   4    -30.3142147 -0.339805E-03  0.634E-02    1.73       1.0  T
   5    -30.3142383 -0.235947E-04  0.369E-02    1.72       1.0  T
   6    -30.3142431 -0.473399E-05  0.152E-02    1.73       1.6  T
   7    -30.3142448 -0.170048E-05  0.724E-03    1.73       3.3  T
   8    -30.3142450 -0.214566E-06  0.333E-03    1.73       7.1  T
   9    -30.3142450 -0.674765E-07  0.815E-04    1.73      28.9  T
  10    -30.3142450 -0.309658E-08  0.464E-04    1.73      50.8  T
     SCC iter.                  ...        0 min,  0.012 sec
     gradient                   ...        0 min,  0.009 sec
 * total energy  :   -29.8993110 Eh     change       -0.1243204E-01 Eh
   gradient norm :     0.0471800 Eh/α   predicted    -0.9968054E-02 ( -19.82%)
   displ. norm   :     0.1773846 α      lambda       -0.4174440E-02
   maximum displ.:     0.1143695 α      in ANC's #9, #11, #27, ...

........................................................................
.............................. CYCLE    3 ..............................
........................................................................
   1    -30.3181135 -0.303181E+02  0.252E-01    1.93       0.0  T
   2    -30.3181948 -0.812650E-04  0.143E-01    2.00       1.0  T
   3    -30.3181779  0.169096E-04  0.108E-01    1.96       1.0  T
   4    -30.3182352 -0.573006E-04  0.409E-02    1.99       1.0  T
   5    -30.3182555 -0.203768E-04  0.203E-02    1.98       1.2  T
   6    -30.3182565 -0.994415E-06  0.853E-03    1.99       2.8  T
   7    -30.3182569 -0.327080E-06  0.366E-03    1.99       6.4  T
   8    -30.3182569 -0.357971E-07  0.192E-03    1.99      12.3  T
   9    -30.3182569 -0.334741E-07  0.533E-04    1.99      44.3  T
  10    -30.3182569 -0.182872E-08  0.306E-04    1.99      77.0  T
     SCC iter.                  ...        0 min,  0.011 sec
     gradient                   ...        0 min,  0.010 sec
 * total energy  :   -29.9016884 Eh     change       -0.2377400E-02 Eh
   gradient norm :     0.0139432 Eh/α   predicted    -0.2152895E-02 (  -9.44%)
   displ. norm   :     0.0648300 α      lambda       -0.3375614E-03
   maximum displ.:     0.0363999 α      in ANC's #3, #9, #7, ...

........................................................................
.............................. CYCLE    4 ..............................
........................................................................
   1    -30.3182217 -0.303182E+02  0.566E-02    2.01       0.0  T
   2    -30.3182256 -0.392218E-05  0.331E-02    2.01       1.0  T
   3    -30.3182237  0.185463E-05  0.178E-02    2.01       1.3  T
   4    -30.3182266 -0.284740E-05  0.942E-03    2.01       2.5  T
   5    -30.3182274 -0.829814E-06  0.406E-03    2.01       5.8  T
   6    -30.3182274 -0.276235E-07  0.225E-03    2.01      10.5  T
   7    -30.3182274 -0.135206E-07  0.721E-04    2.01      32.7  T
   8    -30.3182274 -0.236730E-08  0.324E-04    2.01      72.7  T
     SCC iter.                  ...        0 min,  0.009 sec
     gradient                   ...        0 min,  0.010 sec
 * total energy  :   -29.9019215 Eh     change       -0.2330694E-03 Eh
   gradient norm :     0.0078489 Eh/α   predicted    -0.1694921E-03 ( -27.28%)
   displ. norm   :     0.0666009 α      lambda       -0.1496940E-03
   maximum displ.:     0.0549509 α      in ANC's #3, #7, #5, ...

........................................................................
.............................. CYCLE    5 ..............................
........................................................................
   1    -30.3178224 -0.303178E+02  0.474E-02    2.01       0.0  T
   2    -30.3178240 -0.163097E-05  0.286E-02    2.00       1.0  T
   3    -30.3178203  0.377785E-05  0.209E-02    2.01       1.1  T
   4    -30.3178269 -0.660591E-05  0.595E-03    2.00       4.0  T
   5    -30.3178271 -0.195469E-06  0.226E-03    2.01      10.4  T
   6    -30.3178271 -0.607139E-08  0.135E-03    2.01      17.5  T
   7    -30.3178271 -0.587191E-08  0.544E-04    2.01      43.3  T
   8    -30.3178271 -0.140947E-09  0.234E-04    2.01     100.5  T
     SCC iter.                  ...        0 min,  0.009 sec
     gradient                   ...        0 min,  0.010 sec
 * total energy  :   -29.9020134 Eh     change       -0.9197036E-04 Eh
   gradient norm :     0.0042089 Eh/α   predicted    -0.7517803E-04 ( -18.26%)
   displ. norm   :     0.0412755 α      lambda       -0.3187798E-04
   maximum displ.:     0.0368720 α      in ANC's #3, #5, #4, ...

........................................................................
.............................. CYCLE    6 ..............................
........................................................................
   1    -30.3177182 -0.303177E+02  0.224E-02    2.00       0.0  T
   2    -30.3177186 -0.355136E-06  0.133E-02    2.00       1.8  T
   3    -30.3177181  0.470335E-06  0.998E-03    2.00       2.4  T
   4    -30.3177194 -0.124966E-05  0.237E-03    2.00      10.0  T
   5    -30.3177194 -0.393271E-07  0.982E-04    2.00      24.0  T
   6    -30.3177194 -0.553464E-08  0.474E-04    2.00      49.7  T
     SCC iter.                  ...        0 min,  0.007 sec
     gradient                   ...        0 min,  0.010 sec
 * total energy  :   -29.9020361 Eh     change       -0.2266083E-04 Eh
   gradient norm :     0.0024709 Eh/α   predicted    -0.1596657E-04 ( -29.54%)
   displ. norm   :     0.0456627 α      lambda       -0.2036794E-04
   maximum displ.:     0.0374379 α      in ANC's #3, #5, #4, ...

........................................................................
.............................. CYCLE    7 ..............................
........................................................................
   1    -30.3177168 -0.303177E+02  0.214E-02    2.00       0.0  T
   2    -30.3177173 -0.476145E-06  0.122E-02    1.99       1.9  T
   3    -30.3177169  0.406279E-06  0.862E-03    2.00       2.7  T
   4    -30.3177176 -0.752253E-06  0.257E-03    1.99       9.2  T
   5    -30.3177177 -0.846922E-07  0.988E-04    1.99      23.9  T
   6    -30.3177177 -0.679145E-08  0.401E-04    1.99      58.8  T
     SCC iter.                  ...        0 min,  0.007 sec
     gradient                   ...        0 min,  0.010 sec
 * total energy  :   -29.9020494 Eh     change       -0.1335572E-04 Eh
   gradient norm :     0.0011508 Eh/α   predicted    -0.1020478E-04 ( -23.59%)
   displ. norm   :     0.0484178 α      lambda       -0.7980698E-05
   maximum displ.:     0.0310017 α      in ANC's #5, #3, #4, ...

........................................................................
.............................. CYCLE    8 ..............................
........................................................................
   1    -30.3177744 -0.303178E+02  0.219E-02    2.00       0.0  T
   2    -30.3177749 -0.486610E-06  0.124E-02    2.00       1.9  T
   3    -30.3177747  0.190714E-06  0.611E-03    1.99       3.9  T
   4    -30.3177751 -0.342792E-06  0.165E-03    1.99      14.3  T
   5    -30.3177751 -0.302700E-07  0.739E-04    1.99      31.9  T
   6    -30.3177751 -0.391127E-08  0.252E-04    1.99      93.6  T
     SCC iter.                  ...        0 min,  0.007 sec
     gradient                   ...        0 min,  0.010 sec
 * total energy  :   -29.9020568 Eh     change       -0.7361607E-05 Eh
   gradient norm :     0.0014264 Eh/α   predicted    -0.3994012E-05 ( -45.75%)
   displ. norm   :     0.0427548 α      lambda       -0.5820217E-05
   maximum displ.:     0.0345265 α      in ANC's #5, #4, #2, ...

........................................................................
.............................. CYCLE    9 ..............................
........................................................................
   1    -30.3177988 -0.303178E+02  0.195E-02    2.00       0.0  T
   2    -30.3177990 -0.163870E-06  0.111E-02    2.00       2.1  T
   3    -30.3177985  0.520062E-06  0.635E-03    2.00       3.7  T
   4    -30.3177991 -0.601009E-06  0.186E-03    2.00      12.7  T
   5    -30.3177991 -0.421793E-07  0.708E-04    2.00      33.3  T
   6    -30.3177991 -0.296097E-08  0.220E-04    2.00     107.2  T
     SCC iter.                  ...        0 min,  0.007 sec
     gradient                   ...        0 min,  0.010 sec
 * total energy  :   -29.9020644 Eh     change       -0.7602805E-05 Eh
   gradient norm :     0.0013738 Eh/α   predicted    -0.2912452E-05 ( -61.69%)
   displ. norm   :     0.0959482 α      lambda       -0.1328938E-04
   maximum displ.:     0.0778543 α      in ANC's #5, #4, #2, ...

........................................................................
.............................. CYCLE   10 ..............................
........................................................................
   1    -30.3177027 -0.303177E+02  0.419E-02    2.00       0.0  T
   2    -30.3177030 -0.350256E-06  0.237E-02    2.00       1.0  T
   3    -30.3177006  0.247902E-05  0.131E-02    2.00       1.8  T
   4    -30.3177033 -0.276614E-05  0.319E-03    2.00       7.4  T
   5    -30.3177034 -0.839696E-07  0.142E-03    2.00      16.6  T
   6    -30.3177034 -0.148983E-07  0.320E-04    2.00      73.7  T
   7    -30.3177034 -0.709377E-09  0.147E-04    2.00     160.1  T
     SCC iter.                  ...        0 min,  0.008 sec
     gradient                   ...        0 min,  0.010 sec
 * total energy  :   -29.9020818 Eh     change       -0.1739791E-04 Eh
   gradient norm :     0.0016913 Eh/α   predicted    -0.6673313E-05 ( -61.64%)
   displ. norm   :     0.1231930 α      lambda       -0.1705751E-04
   maximum displ.:     0.1003755 α      in ANC's #5, #4, #2, ...

........................................................................
.............................. CYCLE   11 ..............................
........................................................................
   1    -30.3174553 -0.303175E+02  0.517E-02    2.00       0.0  T
   2    -30.3174555 -0.266250E-06  0.293E-02    2.00       1.0  T
   3    -30.3174535  0.201358E-05  0.117E-02    2.00       2.0  T
   4    -30.3174557 -0.217521E-05  0.329E-03    2.00       7.2  T
   5    -30.3174558 -0.607783E-07  0.140E-03    2.00      16.8  T
   6    -30.3174558 -0.200875E-07  0.303E-04    2.00      77.7  T
   7    -30.3174558 -0.676643E-09  0.147E-04    2.00     160.2  T
     SCC iter.                  ...        0 min,  0.008 sec
     gradient                   ...        0 min,  0.010 sec
 * total energy  :   -29.9021047 Eh     change       -0.2285090E-04 Eh
   gradient norm :     0.0026900 Eh/α   predicted    -0.8587458E-05 ( -62.42%)
   displ. norm   :     0.1028922 α      lambda       -0.2472503E-04
   maximum displ.:     0.0838559 α      in ANC's #5, #4, #2, ...

........................................................................
.............................. CYCLE   12 ..............................
........................................................................
   1    -30.3173375 -0.303173E+02  0.431E-02    2.00       0.0  T
   2    -30.3173377 -0.144852E-06  0.243E-02    2.00       1.0  T
   3    -30.3173372  0.467937E-06  0.640E-03    2.00       3.7  T
   4    -30.3173377 -0.473770E-06  0.280E-03    2.01       8.4  T
   5    -30.3173377 -0.575809E-07  0.910E-04    2.00      25.9  T
   6    -30.3173378 -0.111741E-07  0.208E-04    2.00     113.3  T
     SCC iter.                  ...        0 min,  0.007 sec
     gradient                   ...        0 min,  0.010 sec
 * total energy  :   -29.9021272 Eh     change       -0.2256408E-04 Eh
   gradient norm :     0.0033384 Eh/α   predicted    -0.1249537E-04 ( -44.62%)
   displ. norm   :     0.2262736 α      lambda       -0.5694982E-04
   maximum displ.:     0.1862739 α      in ANC's #5, #4, #2, ...

........................................................................
.............................. CYCLE   13 ..............................
........................................................................
   1    -30.3164620 -0.303165E+02  0.968E-02    2.00       0.0  T
   2    -30.3164630 -0.103421E-05  0.544E-02    2.01       1.0  T
   3    -30.3164620  0.962345E-06  0.112E-02    2.00       2.1  T
   4    -30.3164629 -0.822805E-06  0.637E-03    2.01       3.7  T
   5    -30.3164632 -0.340436E-06  0.253E-03    2.00       9.3  T
   6    -30.3164633 -0.880458E-07  0.499E-04    2.01      47.2  T
   7    -30.3164633 -0.154527E-08  0.275E-04    2.01      85.6  T
     SCC iter.                  ...        0 min,  0.008 sec
     gradient                   ...        0 min,  0.010 sec
 * total energy  :   -29.9021645 Eh     change       -0.3732362E-04 Eh
   gradient norm :     0.0058043 Eh/α   predicted    -0.2993295E-04 ( -19.80%)
   displ. norm   :     0.1097614 α      lambda       -0.4901682E-04
   maximum displ.:     0.0923546 α      in ANC's #5, #4, #3, ...

........................................................................
.............................. CYCLE   14 ..............................
........................................................................
   1    -30.3168447 -0.303168E+02  0.545E-02    2.00       0.0  T
   2    -30.3168451 -0.462488E-06  0.303E-02    2.01       1.0  T
   3    -30.3168447  0.434268E-06  0.725E-03    2.01       3.3  T
   4    -30.3168453 -0.540001E-06  0.297E-03    2.01       7.9  T
   5    -30.3168453 -0.111970E-07  0.163E-03    2.01      14.5  T
   6    -30.3168453 -0.393960E-07  0.359E-04    2.01      65.7  T
   7    -30.3168453 -0.940627E-09  0.235E-04    2.01     100.5  T
     SCC iter.                  ...        0 min,  0.008 sec
     gradient                   ...        0 min,  0.010 sec
 * total energy  :   -29.9022037 Eh     change       -0.3920441E-04 Eh
   gradient norm :     0.0055869 Eh/α   predicted    -0.2480361E-04 ( -36.73%)
   displ. norm   :     0.1949739 α      lambda       -0.8813615E-04
   maximum displ.:     0.1662118 α      in ANC's #5, #4, #1, ...

........................................................................
.............................. CYCLE   15 ..............................
........................................................................
   1    -30.3171464 -0.303171E+02  0.101E-01    2.00       0.0  T
   2    -30.3171475 -0.114023E-05  0.560E-02    2.00       1.0  T
   3    -30.3171440  0.354494E-05  0.165E-02    2.01       1.4  T
   4    -30.3171477 -0.369865E-05  0.687E-03    2.00       3.4  T
   5    -30.3171481 -0.358959E-06  0.310E-03    2.00       7.6  T
   6    -30.3171482 -0.106607E-06  0.459E-04    2.00      51.4  T
   7    -30.3171482 -0.159748E-08  0.239E-04    2.00      98.7  T
     SCC iter.                  ...        0 min,  0.008 sec
     gradient                   ...        0 min,  0.010 sec
 * total energy  :   -29.9022738 Eh     change       -0.7006877E-04 Eh
   gradient norm :     0.0046137 Eh/α   predicted    -0.4574289E-04 ( -34.72%)
   displ. norm   :     0.2644322 α      lambda       -0.1079118E-03
   maximum displ.:     0.2246585 α      in ANC's #5, #4, #1, ...

........................................................................
.............................. CYCLE   16 ..............................
........................................................................
   1    -30.3170046 -0.303170E+02  0.142E-01    2.00       0.0  T
   2    -30.3170066 -0.208692E-05  0.789E-02    2.00       1.0  T
   3    -30.3169952  0.114513E-04  0.286E-02    2.00       1.0  T
   4    -30.3170075 -0.123074E-04  0.933E-03    1.99       2.5  T
   5    -30.3170081 -0.572990E-06  0.387E-03    2.00       6.1  T
   6    -30.3170082 -0.149707E-06  0.692E-04    2.00      34.1  T
   7    -30.3170082 -0.409369E-08  0.298E-04    2.00      79.0  T
     SCC iter.                  ...        0 min,  0.008 sec
     gradient                   ...        0 min,  0.010 sec
 * total energy  :   -29.9023527 Eh     change       -0.7883675E-04 Eh
   gradient norm :     0.0036448 Eh/α   predicted    -0.5772829E-04 ( -26.77%)
   displ. norm   :     0.1871711 α      lambda       -0.1872770E-03
   maximum displ.:     0.1325692 α      in ANC's #5, #1, #2, ...

........................................................................
.............................. CYCLE   17 ..............................
........................................................................
   1    -30.3234852 -0.303235E+02  0.157E-01    1.99       0.0  T
   2    -30.3234996 -0.143865E-04  0.861E-02    1.98       1.0  T
   3    -30.3234610  0.385678E-04  0.573E-02    2.00       1.0  T
   4    -30.3235066 -0.456004E-04  0.149E-02    1.97       1.6  T
   5    -30.3235087 -0.204666E-05  0.523E-03    1.98       4.5  T
   6    -30.3235088 -0.764038E-07  0.216E-03    1.98      10.9  T
   7    -30.3235088 -0.394123E-07  0.702E-04    1.98      33.6  T
   8    -30.3235088 -0.123632E-08  0.357E-04    1.98      66.0  T
     SCC iter.                  ...        0 min,  0.009 sec
     gradient                   ...        0 min,  0.010 sec
 * total energy  :   -29.9020202 Eh     change        0.3324163E-03 Eh
   gradient norm :     0.0174185 Eh/α   predicted    -0.9692050E-04 (-129.16%)
   displ. norm   :     0.1897224 α      lambda       -0.7940865E-03
   maximum displ.:     0.1499094 α      in ANC's #5, #2, #4, ...

........................................................................
.............................. CYCLE   18 ..............................
........................................................................
   1    -30.3173556 -0.303174E+02  0.108E-01    1.99       0.0  T
   2    -30.3173671 -0.115677E-04  0.592E-02    1.99       1.0  T
   3    -30.3173589  0.822890E-05  0.296E-02    1.98       1.0  T
   4    -30.3173669 -0.802144E-05  0.138E-02    2.00       1.7  T
   5    -30.3173694 -0.249687E-05  0.362E-03    1.99       6.5  T
   6    -30.3173694  0.179599E-08  0.136E-03    1.99      17.3  T
   7    -30.3173694 -0.207835E-07  0.561E-04    1.99      42.0  T
   8    -30.3173694 -0.114831E-08  0.256E-04    1.99      92.2  T
     SCC iter.                  ...        0 min,  0.009 sec
     gradient                   ...        0 min,  0.010 sec
 * total energy  :   -29.9024188 Eh     change       -0.3985775E-03 Eh
   gradient norm :     0.0042978 Eh/α   predicted    -0.4113339E-03 (   3.20%)
   displ. norm   :     0.0256953 α      lambda       -0.2094062E-04
   maximum displ.:     0.0236625 α      in ANC's #5, #4, #31, ...

........................................................................
.............................. CYCLE   19 ..............................
........................................................................
   1    -30.3181751 -0.303182E+02  0.192E-02    1.99       0.0  T
   2    -30.3181754 -0.312991E-06  0.105E-02    1.99       2.2  T
   3    -30.3181750  0.323122E-06  0.619E-03    1.99       3.8  T
   4    -30.3181754 -0.400533E-06  0.203E-03    1.99      11.6  T
   5    -30.3181755 -0.520640E-07  0.751E-04    1.99      31.4  T
   6    -30.3181755 -0.507223E-08  0.266E-04    1.99      88.6  T
     SCC iter.                  ...        0 min,  0.007 sec
     gradient                   ...        0 min,  0.010 sec
 * total energy  :   -29.9024333 Eh     change       -0.1452777E-04 Eh
   gradient norm :     0.0025412 Eh/α   predicted    -0.1047552E-04 ( -27.89%)
   displ. norm   :     0.2221203 α      lambda       -0.6299389E-04
   maximum displ.:     0.1661077 α      in ANC's #5, #1, #4, ...

........................................................................
.............................. CYCLE   20 ..............................
........................................................................
   1    -30.3181653 -0.303182E+02  0.122E-01    2.00       0.0  T
   2    -30.3181669 -0.159833E-05  0.679E-02    2.00       1.0  T
   3    -30.3181657  0.124166E-05  0.132E-02    2.00       1.8  T
   4    -30.3181669 -0.126095E-05  0.700E-03    2.00       3.4  T
   5    -30.3181672 -0.280584E-06  0.337E-03    2.00       7.0  T
   6    -30.3181674 -0.167332E-06  0.680E-04    2.00      34.7  T
   7    -30.3181674 -0.535296E-08  0.282E-04    2.00      83.6  T
     SCC iter.                  ...        0 min,  0.009 sec
     gradient                   ...        0 min,  0.010 sec
 * total energy  :   -29.9024767 Eh     change       -0.4335714E-04 Eh
   gradient norm :     0.0023176 Eh/α   predicted    -0.3304802E-04 ( -23.78%)
   displ. norm   :     0.1447151 α      lambda       -0.3058950E-04
   maximum displ.:     0.1009159 α      in ANC's #5, #1, #4, ...
 * RMSD in coord.:     0.4666659 α      energy gain  -0.1559776E-01 Eh

generating ANC from model Hessian ...
Using Lindh-Hessian (1995)
 Shifting diagonal of input Hessian by   8.252916272773653E-003
 Lowest  eigenvalues of input Hessian
    0.000000    0.000000    0.000000    0.000000    0.000000    0.000000
    0.010000    0.011646    0.012975    0.017276    0.018971    0.029810
    0.032897    0.039544    0.041621    0.043658    0.069185    0.075348
 Highest eigenvalues
    1.670995    1.814813    1.886948    1.981774    2.057772    2.102363
 

........................................................................
.............................. CYCLE   21 ..............................
........................................................................
   1    -30.3180345 -0.303180E+02  0.746E-02    2.00       0.0  T
   2    -30.3180353 -0.780120E-06  0.417E-02    2.00       1.0  T
   3    -30.3180348  0.488436E-06  0.845E-03    2.00       2.8  T
   4    -30.3180355 -0.683337E-06  0.329E-03    2.00       7.2  T
   5    -30.3180355 -0.272865E-07  0.102E-03    2.00      23.1  T
   6    -30.3180355 -0.915514E-08  0.446E-04    2.00      52.9  T
   7    -30.3180355 -0.258537E-08  0.203E-04    2.00     115.9  T
     SCC iter.                  ...        0 min,  0.008 sec
     gradient                   ...        0 min,  0.010 sec
 * total energy  :   -29.9024955 Eh     change       -0.1882112E-04 Eh
   gradient norm :     0.0028847 Eh/α   predicted     0.0000000E+00 (-100.00%)
   displ. norm   :     0.0214059 α      lambda       -0.1932242E-04
   maximum displ.:     0.0152892 α      in ANC's #2, #1, #3, ...

........................................................................
.............................. CYCLE   22 ..............................
........................................................................
   1    -30.3185239 -0.303185E+02  0.143E-02    2.00       0.0  T
   2    -30.3185240 -0.172533E-06  0.816E-03    2.00       2.9  T
   3    -30.3185239  0.108284E-06  0.352E-03    2.00       6.7  T
   4    -30.3185240 -0.111645E-06  0.156E-03    2.00      15.1  T
   5    -30.3185241 -0.303250E-07  0.573E-04    2.00      41.1  T
   6    -30.3185241 -0.229360E-08  0.245E-04    2.00      96.4  T
     SCC iter.                  ...        0 min,  0.007 sec
     gradient                   ...        0 min,  0.010 sec
 * total energy  :   -29.9025090 Eh     change       -0.1347999E-04 Eh
   gradient norm :     0.0010769 Eh/α   predicted    -0.9666120E-05 ( -28.29%)
   displ. norm   :     0.0514131 α      lambda       -0.1037219E-04
   maximum displ.:     0.0418319 α      in ANC's #2, #1, #3, ...

........................................................................
.............................. CYCLE   23 ..............................
........................................................................
   1    -30.3188866 -0.303189E+02  0.260E-02    2.00       0.0  T
   2    -30.3188869 -0.262989E-06  0.148E-02    2.00       1.6  T
   3    -30.3188867  0.235822E-06  0.487E-03    2.00       4.8  T
   4    -30.3188869 -0.273031E-06  0.180E-03    2.00      13.1  T
   5    -30.3188870 -0.225576E-07  0.904E-04    2.00      26.1  T
   6    -30.3188870 -0.723787E-08  0.357E-04    2.00      66.1  T
     SCC iter.                  ...        0 min,  0.007 sec
     gradient                   ...        0 min,  0.010 sec
 * total energy  :   -29.9025181 Eh     change       -0.9107743E-05 Eh
   gradient norm :     0.0012339 Eh/α   predicted    -0.5191282E-05 ( -43.00%)
   displ. norm   :     0.0360715 α      lambda       -0.5099097E-05
   maximum displ.:     0.0293089 α      in ANC's #2, #1, #5, ...

........................................................................
.............................. CYCLE   24 ..............................
........................................................................
   1    -30.3187631 -0.303188E+02  0.158E-02    2.00       0.0  T
   2    -30.3187632 -0.220480E-07  0.915E-03    2.00       2.6  T
   3    -30.3187631  0.406257E-07  0.177E-03    2.00      13.3  T
   4    -30.3187632 -0.433106E-07  0.745E-04    2.00      31.7  T
   5    -30.3187632 -0.538891E-08  0.233E-04    2.00     101.3  T
     SCC iter.                  ...        0 min,  0.006 sec
     gradient                   ...        0 min,  0.010 sec
 * total energy  :   -29.9025248 Eh     change       -0.6737040E-05 Eh
   gradient norm :     0.0010184 Eh/α   predicted    -0.2550381E-05 ( -62.14%)
   displ. norm   :     0.0624368 α      lambda       -0.8077711E-05
   maximum displ.:     0.0486630 α      in ANC's #2, #5, #1, ...

........................................................................
.............................. CYCLE   25 ..............................
........................................................................
   1    -30.3185171 -0.303185E+02  0.213E-02    2.00       0.0  T
   2    -30.3185171 -0.807462E-07  0.124E-02    2.00       1.9  T
   3    -30.3185169  0.274738E-06  0.431E-03    2.00       5.5  T
   4    -30.3185172 -0.296591E-06  0.137E-03    2.00      17.2  T
   5    -30.3185172 -0.169890E-07  0.547E-04    2.00      43.1  T
   6    -30.3185172 -0.204665E-08  0.195E-04    2.00     120.9  T
     SCC iter.                  ...        0 min,  0.007 sec
     gradient                   ...        0 min,  0.010 sec
 * total energy  :   -29.9025343 Eh     change       -0.9431850E-05 Eh
   gradient norm :     0.0007098 Eh/α   predicted    -0.4044226E-05 ( -57.12%)
   displ. norm   :     0.0787087 α      lambda       -0.7535998E-05
   maximum displ.:     0.0595221 α      in ANC's #2, #5, #4, ...

........................................................................
.............................. CYCLE   26 ..............................
........................................................................
   1    -30.3182730 -0.303183E+02  0.279E-02    2.00       0.0  T
   2    -30.3182731 -0.969421E-07  0.165E-02    2.00       1.4  T
   3    -30.3182726  0.476219E-06  0.531E-03    2.00       4.4  T
   4    -30.3182732 -0.517046E-06  0.125E-03    2.00      18.8  T
   5    -30.3182732 -0.179558E-07  0.512E-04    2.00      46.0  T
   6    -30.3182732 -0.134854E-08  0.231E-04    2.00     102.2  T
     SCC iter.                  ...        0 min,  0.007 sec
     gradient                   ...        0 min,  0.010 sec
 * total energy  :   -29.9025418 Eh     change       -0.7547697E-05 Eh
   gradient norm :     0.0014321 Eh/α   predicted    -0.3776337E-05 ( -49.97%)
   displ. norm   :     0.0661173 α      lambda       -0.6019551E-05
   maximum displ.:     0.0507286 α      in ANC's #2, #5, #4, ...

........................................................................
.............................. CYCLE   27 ..............................
........................................................................
   1    -30.3181823 -0.303182E+02  0.214E-02    2.00       0.0  T
   2    -30.3181824 -0.531620E-07  0.125E-02    2.00       1.9  T
   3    -30.3181823  0.118722E-06  0.287E-03    2.00       8.2  T
   4    -30.3181824 -0.132125E-06  0.111E-03    2.00      21.2  T
   5    -30.3181824 -0.977089E-08  0.489E-04    2.00      48.2  T
   6    -30.3181824 -0.244028E-08  0.132E-04    2.00     178.5  T
     SCC iter.                  ...        0 min,  0.007 sec
     gradient                   ...        0 min,  0.010 sec
 * total energy  :   -29.9025489 Eh     change       -0.7036764E-05 Eh
   gradient norm :     0.0017243 Eh/α   predicted    -0.3016462E-05 ( -57.13%)
   displ. norm   :     0.1367695 α      lambda       -0.1252727E-04
   maximum displ.:     0.1051811 α      in ANC's #2, #5, #4, ...

........................................................................
.............................. CYCLE   28 ..............................
........................................................................
   1    -30.3180707 -0.303181E+02  0.443E-02    2.00       0.0  T
   2    -30.3180708 -0.183690E-06  0.261E-02    2.00       1.0  T
   3    -30.3180706  0.268182E-06  0.439E-03    2.00       5.4  T
   4    -30.3180709 -0.328344E-06  0.167E-03    2.00      14.1  T
   5    -30.3180709 -0.186665E-07  0.791E-04    2.00      29.8  T
   6    -30.3180709 -0.587163E-08  0.227E-04    2.00     103.8  T
     SCC iter.                  ...        0 min,  0.007 sec
     gradient                   ...        0 min,  0.010 sec
 * total energy  :   -29.9025618 Eh     change       -0.1290075E-04 Eh
   gradient norm :     0.0020812 Eh/α   predicted    -0.6315047E-05 ( -51.05%)
   displ. norm   :     0.0661391 α      lambda       -0.1284176E-04
   maximum displ.:     0.0496207 α      in ANC's #2, #5, #4, ...

........................................................................
.............................. CYCLE   29 ..............................
........................................................................
   1    -30.3183520 -0.303184E+02  0.231E-02    2.00       0.0  T
   2    -30.3183520 -0.649788E-07  0.135E-02    2.00       1.7  T
   3    -30.3183520 -0.837928E-08  0.125E-03    2.00      18.8  T
   4    -30.3183520 -0.624365E-08  0.720E-04    2.00      32.8  T
   5    -30.3183520 -0.383722E-08  0.317E-04    2.00      74.4  T
     SCC iter.                  ...        0 min,  0.006 sec
     gradient                   ...        0 min,  0.010 sec
 * total energy  :   -29.9025722 Eh     change       -0.1043540E-04 Eh
   gradient norm :     0.0013181 Eh/α   predicted    -0.6447815E-05 ( -38.21%)
   displ. norm   :     0.2219826 α      lambda       -0.1786759E-04
   maximum displ.:     0.1652123 α      in ANC's #2, #5, #4, ...

........................................................................
.............................. CYCLE   30 ..............................
........................................................................
   1    -30.3179713 -0.303180E+02  0.768E-02    2.00       0.0  T
   2    -30.3179718 -0.532949E-06  0.451E-02    2.00       1.0  T
   3    -30.3179718  0.133561E-07  0.455E-03    2.00       5.2  T
   4    -30.3179720 -0.200444E-06  0.214E-03    2.00      11.0  T
   5    -30.3179720 -0.121674E-07  0.947E-04    2.00      24.9  T
   6    -30.3179720 -0.917184E-08  0.352E-04    2.00      66.9  T
     SCC iter.                  ...        0 min,  0.007 sec
     gradient                   ...        0 min,  0.010 sec
 * total energy  :   -29.9025861 Eh     change       -0.1385167E-04 Eh
   gradient norm :     0.0019848 Eh/α   predicted    -0.9128283E-05 ( -34.10%)
   displ. norm   :     0.0565145 α      lambda       -0.1626219E-04
   maximum displ.:     0.0441524 α      in ANC's #1, #2, #5, ...

........................................................................
.............................. CYCLE   31 ..............................
........................................................................
   1    -30.3193131 -0.303193E+02  0.274E-02    2.00       0.0  T
   2    -30.3193137 -0.584198E-06  0.154E-02    2.00       1.5  T
   3    -30.3193136  0.121852E-06  0.447E-03    2.00       5.3  T
   4    -30.3193137 -0.104109E-06  0.255E-03    2.00       9.2  T
   5    -30.3193138 -0.974438E-07  0.837E-04    2.00      28.2  T
   6    -30.3193138 -0.158146E-08  0.425E-04    2.00      55.5  T
     SCC iter.                  ...        0 min,  0.008 sec
     gradient                   ...        0 min,  0.010 sec
 * total energy  :   -29.9025887 Eh     change       -0.2672917E-05 Eh
   gradient norm :     0.0020946 Eh/α   predicted    -0.8143355E-05 ( 204.66%)
   displ. norm   :     0.0669145 α      lambda       -0.1055026E-04
   maximum displ.:     0.0513971 α      in ANC's #2, #5, #4, ...

........................................................................
.............................. CYCLE   32 ..............................
........................................................................
   1    -30.3188157 -0.303188E+02  0.243E-02    2.00       0.0  T
   2    -30.3188159 -0.128254E-06  0.142E-02    2.00       1.7  T
   3    -30.3188158  0.369751E-07  0.228E-03    2.00      10.3  T
   4    -30.3188159 -0.369769E-07  0.135E-03    2.00      17.4  T
   5    -30.3188159 -0.248337E-07  0.465E-04    2.00      50.7  T
   6    -30.3188159 -0.631658E-09  0.189E-04    2.00     124.7  T
     SCC iter.                  ...        0 min,  0.007 sec
     gradient                   ...        0 min,  0.010 sec
 * total energy  :   -29.9025965 Eh     change       -0.7814018E-05 Eh
   gradient norm :     0.0006207 Eh/α   predicted    -0.5299978E-05 ( -32.17%)
   displ. norm   :     0.1498346 α      lambda       -0.5337574E-05
   maximum displ.:     0.1150060 α      in ANC's #2, #5, #4, ...

........................................................................
.............................. CYCLE   33 ..............................
........................................................................
   1    -30.3178158 -0.303178E+02  0.555E-02    2.00       0.0  T
   2    -30.3178164 -0.575629E-06  0.323E-02    2.00       1.0  T
   3    -30.3178163  0.143038E-06  0.476E-03    2.00       4.9  T
   4    -30.3178164 -0.173766E-06  0.283E-03    2.00       8.3  T
   5    -30.3178165 -0.989842E-07  0.105E-03    2.00      22.5  T
   6    -30.3178165 -0.443737E-08  0.409E-04    2.00      57.7  T
   7    -30.3178165 -0.182447E-08  0.121E-04    2.00     194.3  T
     SCC iter.                  ...        0 min,  0.008 sec
     gradient                   ...        0 min,  0.010 sec
 * total energy  :   -29.9025921 Eh     change        0.4462243E-05 Eh
   gradient norm :     0.0023687 Eh/α   predicted    -0.2696485E-05 (-160.43%)
   displ. norm   :     0.0689453 α      lambda       -0.1205635E-04
   maximum displ.:     0.0517101 α      in ANC's #2, #5, #4, ...

........................................................................
.............................. CYCLE   34 ..............................
........................................................................
   1    -30.3184685 -0.303185E+02  0.250E-02    2.00       0.0  T
   2    -30.3184687 -0.155104E-06  0.146E-02    2.00       1.6  T
   3    -30.3184687  0.111085E-07  0.206E-03    2.00      11.5  T
   4    -30.3184687 -0.318732E-07  0.972E-04    2.00      24.2  T
   5    -30.3184687 -0.662107E-08  0.506E-04    2.00      46.5  T
     SCC iter.                  ...        0 min,  0.006 sec
     gradient                   ...        0 min,  0.010 sec
 * total energy  :   -29.9025987 Eh     change       -0.6633437E-05 Eh
   gradient norm :     0.0007183 Eh/α   predicted    -0.6055118E-05 (  -8.72%)
   displ. norm   :     0.0083772 α      lambda       -0.1059158E-05
   maximum displ.:     0.0048858 α      in ANC's #1, #5, #3, ...

........................................................................
.............................. CYCLE   35 ..............................
........................................................................
   1    -30.3186692 -0.303187E+02  0.475E-03    2.00       0.0  T
   2    -30.3186692 -0.151286E-07  0.266E-03    2.00       8.9  T
   3    -30.3186691  0.294004E-07  0.154E-03    2.00      15.3  T
   4    -30.3186692 -0.334961E-07  0.471E-04    2.00      50.1  T
   5    -30.3186692 -0.243428E-08  0.173E-04    2.00     136.6  T
     SCC iter.                  ...        0 min,  0.006 sec
     gradient                   ...        0 min,  0.010 sec
 * total energy  :   -29.9025998 Eh     change       -0.1049096E-05 Eh
   gradient norm :     0.0001447 Eh/α   predicted    -0.5305162E-06 ( -49.43%)
   displ. norm   :     0.0236413 α      lambda       -0.6650990E-06
   maximum displ.:     0.0193436 α      in ANC's #2, #1, #3, ...

   *** GEOMETRY OPTIMIZATION CONVERGED AFTER 35 ITERATIONS ***

------------------------------------------------------------------------
 total energy gain   :        -0.0157208 Eh       -9.8650 kcal/mol
 total RMSD          :         0.6183268 a0        0.3272 Å
 total power (kW/mol):        -1.1792855 (step)  -51.7922 (real)
------------------------------------------------------------------------

 ANCopt (total)                0 d,  0 h,  0 min,  0.797 sec
 optimizer setup                ...        0 min,  0.000 sec (  0.062%)
 model hessian                  ...        0 min,  0.005 sec (  0.676%)
 ANC generation                 ...        0 min,  0.001 sec (  0.175%)
 coordinate transformation      ...        0 min,  0.001 sec (  0.068%)
 single point calculation       ...        0 min,  0.773 sec ( 96.938%)
 optimization log               ...        0 min,  0.006 sec (  0.787%)
 hessian update                 ...        0 min,  0.001 sec (  0.073%)
 rational function              ...        0 min,  0.007 sec (  0.879%)

================
 final structure:
================
18
 xtb: 6.4.1 (afa7bdf)
C        -3.63083330094734   -0.05544363482626    0.01572901372855
C        -2.25005477627498    0.39084737711518    0.35811446175327
C        -1.05922175842614   -0.08937318385641   -0.06846412556105
C         0.06378412564508    0.61044633063116    0.48422328800772
C         1.41152969847586    0.23749856216619    0.15044808729488
N         2.49129346743717    0.89880068773229    0.56100657746150
N         3.55020279941274    0.24386597755316    0.04950570999027
C         3.17890384263240   -0.83010186283403   -0.68694632631342
C         1.81431913130036   -0.87410734748422   -0.65137996314239
C        -0.21504856995353    1.66054335158244    1.36440786447033
S        -1.97348616361799    1.72349906597318    1.46147991789354
H        -4.20129365152448    0.75386279296479   -0.44844487510131
H        -3.59247175208707   -0.89560644547639   -0.68061800294646
H        -4.17486821648173   -0.37088775782015    0.91034959523978
H        -0.98364555683985   -0.91635405716641   -0.76511612112393
H         4.48103102196875    0.57646798024803    0.23810502686458
H         3.90509120694448   -1.46283684739045   -1.16589009214944
H         1.18476745233629   -1.60111998911210   -1.12651003636640
 
 Bond Distances (Angstroems)
 ---------------------------
C1-C2=1.4910         C1-H12=1.0936        C1-H13=1.0919        C1-H14=1.0935        C2-C1=1.4910         C2-C3=1.3530         
C2-S11=1.7521        C3-C2=1.3530         C3-C4=1.4340         C3-H15=1.0839        C4-C3=1.4340         C4-C5=1.4377         
C4-C10=1.3983        C5-C4=1.4377         C5-N6=1.3311         C5-C9=1.4286         N6-C5=1.3311         N6-N7=1.3461         
N7-N6=1.3461         N7-C8=1.3541         N7-H16=1.0063        C8-N7=1.3541         C8-C9=1.3658         C8-H17=1.0757        
C9-C5=1.4286         C9-C8=1.3658         C9-H18=1.0727        C10-C4=1.3983        C10-S11=1.7622       S11-C2=1.7521        
S11-C10=1.7622       H12-C1=1.0936        H13-C1=1.0919        H14-C1=1.0935        H15-C3=1.0839        H16-N7=1.0063        
H17-C8=1.0757        H18-C9=1.0727        
 C  H  Rav=1.0852 sigma=0.0085  Rmin=1.0727  Rmax=1.0936     6
 C  C  Rav=1.4155 sigma=0.0437  Rmin=1.3530  Rmax=1.4910     7
 N  H  Rav=1.0063 sigma=0.0000  Rmin=1.0063  Rmax=1.0063     1
 N  C  Rav=1.3426 sigma=0.0115  Rmin=1.3311  Rmax=1.3541     2
 N  N  Rav=1.3461 sigma=0.0000  Rmin=1.3461  Rmax=1.3461     1
 S  C  Rav=1.7572 sigma=0.0051  Rmin=1.7521  Rmax=1.7622     2
 
 selected bond angles (degree)
 --------------------
H12-C1-C2=111.04               H13-C1-C2=110.14               H13-C1-H12=108.49              H14-C1-C2=111.05               
H14-C1-H12=107.53              H14-C1-H13=108.50              C3-C2-C1=129.53                S11-C2-C1=121.23               
S11-C2-C3=109.24               C4-C3-C2=113.24                H15-C3-C2=122.33               H15-C3-C4=124.43               
C5-C4-C3=121.20                C10-C4-C3=116.93               C10-C4-C5=121.86               N6-C5-C4=124.05                
C9-C5-C4=126.62                C9-C5-N6=109.33                N7-N6-C5=106.21                C8-N7-N6=112.14                
H16-N7-N6=119.71               H16-N7-C8=128.15               C9-C8-N7=106.58                H17-C8-N7=121.57               
H17-C8-C9=131.85               C8-C9-C5=105.74                H18-C9-C5=127.63               H18-C9-C8=126.63               
S11-C10-C4=105.10              
 
 selected dihedral angles (degree)
 ---------------------------------
C3-C2-C1-H12=240.05           C3-C2-C1-H13=  0.24           C3-C2-C1-H14=120.45           S11-C2-C1-H12= 59.97          
S11-C2-C1-H13=180.16          S11-C2-C1-H14=300.37          C4-C3-C2-C1=179.77            C4-C3-C2-S11=359.84           
H15-C3-C2-C1=  0.24           H15-C3-C2-S11=180.31          C5-C4-C3-C2=179.72            C5-C4-C3-H15=359.24           
C10-C4-C3-C2=  0.12           C10-C4-C3-H15=179.64          N6-C5-C4-C3=175.53            N6-C5-C4-C10=355.11           
C9-C5-C4-C3=355.36            C9-C5-C4-C10=174.94           N7-N6-C5-C4=179.77            N7-N6-C5-C9=359.92            
C8-N7-N6-C5=  0.06            H16-N7-N6-C5=180.07           C9-C8-N7-N6=  0.00            C9-C8-N7-H16=179.98           
H17-C8-N7-N6=180.04           H17-C8-N7-H16=  0.03          C8-C9-C5-C4=180.23            C8-C9-C5-N6=  0.08            
H18-C9-C5-C4=359.91           H18-C9-C5-N6=179.76           C5-C9-C8-N7=359.96            C5-C9-C8-H17=179.90           
H18-C9-C8-N7=180.27           H18-C9-C8-H17=  0.21          S11-C10-C4-C3=  0.00          S11-C10-C4-C5=180.38          
           -------------------------------------------------
          |                Final Singlepoint                |
           -------------------------------------------------

          ...................................................
          :                      SETUP                      :
          :.................................................:
          :  # basis functions                  57          :
          :  # atomic orbitals                  56          :
          :  # shells                           30          :
          :  # electrons                        56          :
          :  max. iterations                   250          :
          :  Hamiltonian                  GFN2-xTB          :
          :  restarted?                      false          :
          :  GBSA solvation                  false          :
          :  PC potential                    false          :
          :  electronic temp.          300.0000000     K    :
          :  accuracy                    1.0000000          :
          :  -> integral cutoff          0.2500000E+02      :
          :  -> integral neglect         0.1000000E-07      :
          :  -> SCF convergence          0.1000000E-05 Eh   :
          :  -> wf. convergence          0.1000000E-03 e    :
          :  Broyden damping             0.4000000          :
          ...................................................

 iter      E             dE          RMSdq      gap      omega  full diag
   1    -30.3186692 -0.303187E+02  0.771E-05    2.00       0.0  T
   2    -30.3186692 -0.206200E-10  0.517E-05    2.00     455.8  T
   3    -30.3186692 -0.312887E-10  0.259E-05    2.00     908.6  T

   *** convergence criteria satisfied after 3 iterations ***

         #    Occupation            Energy/Eh            Energy/eV
      -------------------------------------------------------------
         1        2.0000           -0.5401558             -14.6984
       ...           ...                  ...                  ...
        22        2.0000           -0.2546249              -6.9287
        23        2.0000           -0.2478507              -6.7444
        24        2.0000           -0.2343573              -6.3772
        25        2.0000           -0.2236102              -6.0847
        26        2.0000           -0.1898542              -5.1662
        27        2.0000           -0.1621616              -4.4126
        28        2.0000           -0.1385914              -3.7713 (HOMO)
        29                         -0.0651221              -1.7721 (LUMO)
        30                         -0.0331883              -0.9031
        31                         -0.0194321              -0.5288
        32                          0.0055879               0.1521
        33                          0.0833425               2.2679
       ...                                ...                  ...
        56                          0.8807917              23.9676
      -------------------------------------------------------------
                  HL-Gap            0.0734693 Eh            1.9992 eV
             Fermi-level           -0.1018567 Eh           -2.7717 eV
 
 localization/xTB-IFF output generation
 averaging CT terms over            1  occ. levels
 averaging CT terms over            1  virt. levels
 dipole moment from electron density (au)
     X       Y       Z   
   1.1511  -2.8289  -2.3109  total (Debye):    9.735
cpu  time for init local    0.01 s
wall time for init local    0.01 s
 doing rotations ...
 initialization of trafo matrix to unity
iteration     50  convergence  0.52963415D-05

 converged in     56 iterations, threshold :   0.98614585D-06
 doing transformations ...
 lmo centers(Z=2) and atoms on file <lmocent.coord>
 LMO Fii/eV  ncent    charge center   contributions...
    1 sigma -12.85   1.95   5.79092   1.03470   0.59079    7N :  0.57    6N :  0.44
    2 sigma -12.59   1.92   6.49060  -0.53365  -0.41652    7N :  0.59    8C :  0.42
    3 sigma -12.38   1.97   7.80430   0.83683   0.31445    7N :  0.56   16H :  0.44
    4 sigma -11.05   2.01   6.93648  -2.37828  -1.91091   17H :  0.51    8C :  0.48
    5 sigma -10.26   1.98  -6.80046  -1.16489  -0.84912   13H :  0.51    1C :  0.50
    6 sigma -10.20   1.96  -5.60721   0.30854   0.34751    1C :  0.54    2C :  0.47
    7 sigma -10.19   1.98  -7.55331   0.91907  -0.55319   12H :  0.50    1C :  0.50
    8 sigma -10.19   1.98  -7.52003  -0.49907   1.15994   14H :  0.50    1C :  0.50
    9 sigma -10.15   1.99   2.95626  -0.66444  -0.51000    9C :  0.52    5C :  0.48
   10 sigma -10.04   2.01   2.62042  -2.57616  -1.83549   18H :  0.51    9C :  0.49
   11 sigma  -9.57   1.96  -4.09575   2.00605   1.72880   11S :  0.57    2C :  0.43
   12 pi     -9.49   2.15   4.64241  -1.85207  -0.81264    9C :  0.49    8C :  0.47
   13 sigma  -9.47   2.00   1.45079   0.79121   0.58461    5C :  0.54    4C :  0.45
   14 pi     -9.46   2.16   4.59010  -1.25675  -1.63765    9C :  0.49    8C :  0.47
   15 pi     -9.34   1.55   6.36078   0.35012  -0.19388    7N :  0.79    8C :  0.12
   16 pi     -9.28   2.10   3.86852   0.83356   1.05794    6N :  0.56    5C :  0.41
   17 pi     -9.26   2.11   3.83015   1.36050   0.29916    6N :  0.56    5C :  0.40
   18 sigma  -9.22   2.01  -1.89916  -1.23677  -1.02798   15H :  0.53    3C :  0.47
   19 sigma  -9.16   1.99  -0.93738   0.42648   0.34256    3C :  0.53    4C :  0.47
   20 LP     -8.42   1.15  -4.20486   2.27731   5.14293   11S :  0.93
   21 LP     -8.42   1.15  -4.29757   5.40825   1.38575   11S :  0.93
   22 sigma  -8.35   1.78  -2.31028   3.21784   2.69347   11S :  0.68   10C :  0.32
   23 pi     -8.30   2.07  -3.14769   0.66356  -0.09846    2C :  0.51    3C :  0.48
   24 pi     -8.29   2.08  -3.13067  -0.01387   0.71321    2C :  0.51    3C :  0.47
   25 LP     -7.26   1.02   4.95073   3.20850   2.10325    6N :  0.99
   26 delpi  -7.09   2.31  -0.11590   2.13849   1.13180    4C :  0.55   10C :  0.36
   27 delpi  -7.04   2.33  -0.07752   1.52370   1.83047    4C :  0.55   10C :  0.36
   28 LP     -5.07   1.08   0.39180   4.51258   3.71415   10C :  0.96
 starting deloc pi regularization ...
 thr    2.20000000000000      # pi deloc LMO           5
 files:
 coordprot.0/xtbscreen.xyz/xtblmoinfo/lmocent.coord
 with protonation site input, xtbdock and
 LMO center info written
 

 SCC (total)                   0 d,  0 h,  0 min,  0.034 sec
 SCC setup                      ...        0 min,  0.000 sec (  0.621%)
 Dispersion                     ...        0 min,  0.000 sec (  0.353%)
 classical contributions        ...        0 min,  0.000 sec (  0.121%)
 integral evaluation            ...        0 min,  0.004 sec ( 12.987%)
 iterations                     ...        0 min,  0.004 sec ( 12.392%)
 molecular gradient             ...        0 min,  0.009 sec ( 28.086%)
 printout                       ...        0 min,  0.015 sec ( 45.288%)

         :::::::::::::::::::::::::::::::::::::::::::::::::::::
         ::                     SUMMARY                     ::
         :::::::::::::::::::::::::::::::::::::::::::::::::::::
         :: total energy             -29.902599758704 Eh    ::
         :: gradient norm              0.000144783939 Eh/a0 ::
         :: HOMO-LUMO gap              1.999202163711 eV    ::
         ::.................................................::
         :: SCC energy               -30.318669176710 Eh    ::
         :: -> isotropic ES            0.107851788024 Eh    ::
         :: -> anisotropic ES          0.011633250799 Eh    ::
         :: -> anisotropic XC          0.018208816068 Eh    ::
         :: -> dispersion             -0.018535432549 Eh    ::
         :: repulsion energy           0.416112867870 Eh    ::
         :: add. restraining           0.000000000000 Eh    ::
         :: total charge              -1.000000000000 e     ::
         :::::::::::::::::::::::::::::::::::::::::::::::::::::

           -------------------------------------------------
          |                Property Printout                |
           -------------------------------------------------

    * Orbital Energies and Occupations

         #    Occupation            Energy/Eh            Energy/eV
      -------------------------------------------------------------
         1        2.0000           -0.5401558             -14.6984
       ...           ...                  ...                  ...
        16        2.0000           -0.3360703              -9.1449
        17        2.0000           -0.3261058              -8.8738
        18        2.0000           -0.3155713              -8.5871
        19        2.0000           -0.2770541              -7.5390
        20        2.0000           -0.2704474              -7.3592
        21        2.0000           -0.2631827              -7.1616
        22        2.0000           -0.2546249              -6.9287
        23        2.0000           -0.2478507              -6.7444
        24        2.0000           -0.2343573              -6.3772
        25        2.0000           -0.2236102              -6.0847
        26        2.0000           -0.1898542              -5.1662
        27        2.0000           -0.1621616              -4.4126
        28        2.0000           -0.1385914              -3.7713 (HOMO)
        29                         -0.0651221              -1.7721 (LUMO)
        30                         -0.0331883              -0.9031
        31                         -0.0194321              -0.5288
        32                          0.0055879               0.1521
        33                          0.0833425               2.2679
        34                          0.0849946               2.3128
        35                          0.1463112               3.9813
        36                          0.1956651               5.3243
        37                          0.2101208               5.7177
        38                          0.2295117               6.2453
        39                          0.2527834               6.8786
       ...                                ...                  ...
        56                          0.8807917              23.9676
      -------------------------------------------------------------
                  HL-Gap            0.0734693 Eh            1.9992 eV
             Fermi-level           -0.1018567 Eh           -2.7717 eV

     #   Z          covCN         q      C6AA      α(0)
     1   6 C        3.768    -0.076    21.981     6.682
     2   6 C        2.972     0.004    27.921     8.667
     3   6 C        3.106    -0.066    29.492     8.898
     4   6 C        3.216    -0.044    28.367     8.664
     5   6 C        3.121     0.069    26.287     8.397
     6   7 N        1.987    -0.268    27.757     7.814
     7   7 N        2.974    -0.031    21.839     6.941
     8   6 C        2.977    -0.019    28.480     8.754
     9   6 C        3.024    -0.085    30.108     9.001
    10   6 C        1.973    -0.220    37.532     9.893
    11  16 S        2.397    -0.322   155.088    20.960
    12   1 H        0.924     0.009     2.913     2.669
    13   1 H        0.924    -0.001     3.071     2.741
    14   1 H        0.924     0.009     2.912     2.669
    15   1 H        0.925    -0.051     4.123     3.175
    16   1 H        0.860     0.122     1.607     1.986
    17   1 H        0.926    -0.019     3.404     2.885
    18   1 H        0.926    -0.012     3.267     2.826

 Mol. C6AA /au·bohr⁶  :       5962.488932
 Mol. C8AA /au·bohr⁸  :     164554.434333
 Mol. α(0) /au        :        123.621411


Wiberg/Mayer (AO) data.
largest (>0.10) Wiberg bond orders for each atom

 ---------------------------------------------------------------------------
     #   Z sym  total        # sym  WBO       # sym  WBO       # sym  WBO
 ---------------------------------------------------------------------------
     1   6 C    3.994 --     2 C    1.022    13 H    0.984    14 H    0.979
                            12 H    0.979
     2   6 C    3.935 --     3 C    1.635    11 S    1.097     1 C    1.022
                            10 C    0.108
     3   6 C    3.974 --     2 C    1.635     4 C    1.196    15 H    0.959
     4   6 C    3.952 --    10 C    1.481     3 C    1.196     5 C    1.121
     5   6 C    3.963 --     6 N    1.444     9 C    1.249     4 C    1.121
     6   7 N    2.927 --     5 C    1.444     7 N    1.160     8 C    0.161
     7   7 N    3.564 --     8 C    1.240     6 N    1.160    16 H    0.955
                             9 C    0.103
     8   6 C    3.947 --     9 C    1.556     7 N    1.240    17 H    0.968
                             6 N    0.161
     9   6 C    3.970 --     8 C    1.556     5 C    1.249    18 H    0.973
                             7 N    0.103
    10   6 C    2.976 --     4 C    1.481    11 S    1.230     2 C    0.108
    11  16 S    2.531 --    10 C    1.230     2 C    1.097
    12   1 H    0.999 --     1 C    0.979
    13   1 H    1.000 --     1 C    0.984
    14   1 H    0.999 --     1 C    0.979
    15   1 H    0.997 --     3 C    0.959
    16   1 H    0.985 --     7 N    0.955
    17   1 H    0.999 --     8 C    0.968
    18   1 H    1.000 --     9 C    0.973
 ---------------------------------------------------------------------------

Topologies differ in total number of bonds
Writing topology from bond orders to xtbtopo.mol

molecular dipole:
                 x           y           z       tot (Debye)
 q only:        1.059      -1.719      -1.421
   full:        1.151      -2.829      -2.311       9.735
molecular quadrupole (traceless):
                xx          xy          yy          xz          yz          zz
 q only:       -2.483       5.959      -0.497       5.038      -8.534       2.979
  q+dip:        6.131       5.488      -5.447       4.577     -12.003      -0.685
   full:        5.202       5.440      -5.371       4.667     -13.434       0.169

           -------------------------------------------------
          |                Geometry Summary                 |
           -------------------------------------------------

      molecular mass/u    :      163.2196663
   center of mass at/Å    :        0.0593492       0.4897452       0.3918340
  moments of inertia/u·Å² :        0.1772768E+03   0.9406298E+03   0.1114243E+04
rotational constants/cm⁻¹ :        0.9509216E-01   0.1792164E-01   0.1512922E-01

 * 16 selected distances

     #   Z          #   Z                                           value/Å
     2   6 C        3   6 C                                       1.3530205
     3   6 C        4   6 C                                       1.4339989
     4   6 C        5   6 C                                       1.4376766
     5   6 C        6   7 N                                       1.3310780
     6   7 N        7   7 N                                       1.3460541
     7   7 N        8   6 C                                       1.3541165
     5   6 C        9   6 C                                       1.4285781
     8   6 C        9   6 C                                       1.3657573
     2   6 C       11  16 S                                       1.7521033 (max)
     1   6 C       12   1 H                                       1.0935535
     1   6 C       13   1 H                                       1.0918994
     1   6 C       14   1 H                                       1.0935378
     3   6 C       15   1 H                                       1.0839433
     7   7 N       16   1 H                                       1.0062977 (min)
     8   6 C       17   1 H                                       1.0756806
     9   6 C       18   1 H                                       1.0726748

 * 6 distinct bonds (by element types)

   Z      Z             #   av. dist./Å        max./Å        min./Å
   1 H    6 C           6     1.0852149     1.0935535     1.0726748
   6 C    6 C           5     1.4038063     1.4376766     1.3530205
   1 H    7 N           1     1.0062977     1.0062977     1.0062977
   6 C    7 N           2     1.3425972     1.3541165     1.3310780
   7 N    7 N           1     1.3460541     1.3460541     1.3460541
   6 C   16 S           1     1.7521033     1.7521033     1.7521033


optimized geometry written to: xtbopt.xyz


           -------------------------------------------------
          | TOTAL ENERGY              -29.902599758704 Eh   |
          | GRADIENT NORM               0.000144783939 Eh/α |
          | HOMO-LUMO GAP               1.999202163711 eV   |
           -------------------------------------------------

------------------------------------------------------------------------
 * finished run on 2022/11/02 at 18:13:41.708     
------------------------------------------------------------------------
 total:
 * wall-time:     0 d,  0 h,  0 min,  0.988 sec
 *  cpu-time:     0 d,  0 h,  0 min,  0.908 sec
 * ratio c/w:     0.918 speedup
 SCF:
 * wall-time:     0 d,  0 h,  0 min,  0.049 sec
 *  cpu-time:     0 d,  0 h,  0 min,  0.043 sec
 * ratio c/w:     0.877 speedup
 ANC optimizer:
 * wall-time:     0 d,  0 h,  0 min,  0.836 sec
 *  cpu-time:     0 d,  0 h,  0 min,  0.829 sec
 * ratio c/w:     0.991 speedup

