      -----------------------------------------------------------      
     |                   =====================                   |     
     |                           x T B                           |     
     |                   =====================                   |     
     |                         S. Grimme                         |     
     |          Mulliken Center for Theoretical Chemistry        |     
     |                    University of Bonn                     |     
      -----------------------------------------------------------      

   * xtb version 6.4.1 (afa7bdf) compiled by 'ehlert@majestix' on 2021-06-10

   xtb is free software: you can redistribute it and/or modify it under
   the terms of the GNU Lesser General Public License as published by
   the Free Software Foundation, either version 3 of the License, or
   (at your option) any later version.
   
   xtb is distributed in the hope that it will be useful,
   but WITHOUT ANY WARRANTY; without even the implied warranty of
   MERCHANTABILITY or FITNESS FOR A PARTICULAR PURPOSE.  See the
   GNU Lesser General Public License for more details.
   
   Cite this work as:
   * C. Bannwarth, E. Caldeweyher, S. Ehlert, A. Hansen, P. Pracht,
     J. Seibert, S. Spicher, S. Grimme, WIREs Comput. Mol. Sci., 2020, 11,
     e01493. DOI: 10.1002/wcms.1493
   
   for GFN2-xTB:
   * C. Bannwarth, S. Ehlert and S. Grimme., J. Chem. Theory Comput., 2019,
     15, 1652-1671. DOI: 10.1021/acs.jctc.8b01176
   for GFN1-xTB:
   * S. Grimme, C. Bannwarth, P. Shushkov, J. Chem. Theory Comput., 2017,
     13, 1989-2009. DOI: 10.1021/acs.jctc.7b00118
   for GFN0-xTB:
   * P. Pracht, E. Caldeweyher, S. Ehlert, S. Grimme, ChemRxiv, 2019, preprint.
     DOI: 10.26434/chemrxiv.8326202.v1
   for GFN-FF:
   * S. Spicher and S. Grimme, Angew. Chem. Int. Ed., 2020, 59, 15665-15673.
     DOI: 10.1002/anie.202004239
   
   for DFT-D4:
   * E. Caldeweyher, C. Bannwarth and S. Grimme, J. Chem. Phys., 2017,
     147, 034112. DOI: 10.1063/1.4993215
   * E. Caldeweyher, S. Ehlert, A. Hansen, H. Neugebauer, S. Spicher,
     C. Bannwarth and S. Grimme, J. Chem. Phys., 2019, 150, 154122.
     DOI: 10.1063/1.5090222
   * E. Caldeweyher, J.-M. Mewes, S. Ehlert and S. Grimme, Phys. Chem. Chem. Phys.
     2020, 22, 8499-8512. DOI: 10.1039/D0CP00502A
   
   for sTDA-xTB:
   * S. Grimme and C. Bannwarth, J. Chem. Phys., 2016, 145, 054103.
     DOI: 10.1063/1.4959605
   
   in the mass-spec context:
   * V. Asgeirsson, C. Bauer and S. Grimme, Chem. Sci., 2017, 8, 4879.
     DOI: 10.1039/c7sc00601b
   * J. Koopman and S. Grimme, ACS Omega 2019, 4, 12, 15120-15133.
     DOI: 10.1021/acsomega.9b02011
   
   for metadynamics refer to:
   * S. Grimme, J. Chem. Theory Comput., 2019, 155, 2847-2862
     DOI: 10.1021/acs.jctc.9b00143
   
   for SPH calculations refer to:
   * S. Spicher and S. Grimme, J. Chem. Theory Comput., 2021, 17, 1701-1714
     DOI: 10.1021/acs.jctc.0c01306
   
   with help from (in alphabetical order)
   P. Atkinson, C. Bannwarth, F. Bohle, G. Brandenburg, E. Caldeweyher
   M. Checinski, S. Dohm, S. Ehlert, S. Ehrlich, I. Gerasimov, J. Koopman
   C. Lavigne, S. Lehtola, F. März, M. Müller, F. Musil, H. Neugebauer
   J. Pisarek, C. Plett, P. Pracht, J. Seibert, P. Shushkov, S. Spicher
   M. Stahn, M. Steiner, T. Strunk, J. Stückrath, T. Rose, and J. Unsleber
   
 * started run on 2022/11/02 at 18:13:35.657     

           -------------------------------------------------
          |                Calculation Setup                |
           -------------------------------------------------

          program call               : /lustre/hpc/kemi/borup/pKalculator/dep/xtb-6.4.1/bin/xtb --gfn 2 /lustre/hpc/kemi/borup/pKalculator/calc/test#-1=4/conf01/test#-1=4_conf01_gfn2.xyz --opt --lmo --chrg -1 --uhf 0
          hostname                   : fend01.cluster
          coordinate file            : /lustre/hpc/kemi/borup/pKalculator/calc/test#-1=4/conf01/test#-1=4_conf01_gfn2.xyz
          omp threads                :                     1
          number of atoms            :                    18
          number of electrons        :                    56
          charge                     :                    -1
          spin                       :                   0.0
          first test random number   :      0.06426132305628

   ID    Z sym.   atoms
    1    6 C      1-5, 8-10
    2    7 N      6, 7
    3   16 S      11
    4    1 H      12-18

           -------------------------------------------------
          |                 G F N 2 - x T B                 |
           -------------------------------------------------

        Reference                      10.1021/acs.jctc.8b01176
      * Hamiltonian:
        H0-scaling (s, p, d)           1.850000    2.230000    2.230000
        zeta-weighting                 0.500000
      * Dispersion:
        s8                             2.700000
        a1                             0.520000
        a2                             5.000000
        s9                             5.000000
      * Repulsion:
        kExp                           1.500000    1.000000
        rExp                           1.000000
      * Coulomb:
        alpha                          2.000000
        third order                    shell-resolved
        anisotropic                    true
        a3                             3.000000
        a5                             4.000000
        cn-shift                       1.200000
        cn-exp                         4.000000
        max-rad                        5.000000


          ...................................................
          :                      SETUP                      :
          :.................................................:
          :  # basis functions                  57          :
          :  # atomic orbitals                  56          :
          :  # shells                           30          :
          :  # electrons                        56          :
          :  max. iterations                   250          :
          :  Hamiltonian                  GFN2-xTB          :
          :  restarted?                      false          :
          :  GBSA solvation                  false          :
          :  PC potential                    false          :
          :  electronic temp.          300.0000000     K    :
          :  accuracy                    1.0000000          :
          :  -> integral cutoff          0.2500000E+02      :
          :  -> integral neglect         0.1000000E-07      :
          :  -> SCF convergence          0.1000000E-05 Eh   :
          :  -> wf. convergence          0.1000000E-03 e    :
          :  Broyden damping             0.4000000          :
          ...................................................

 iter      E             dE          RMSdq      gap      omega  full diag
   1    -30.1319560 -0.301320E+02  0.471E+00    2.61       0.0  T
   2    -30.1586456 -0.266896E-01  0.397E+00    0.11       1.0  T
   3    -30.2632735 -0.104628E+00  0.207E+00    1.22       1.0  T
   4    -30.2617865  0.148701E-02  0.133E+00    0.10       1.0  T
   5    -30.2892278 -0.274413E-01  0.554E-01    0.87       1.0  T
   6    -30.2928588 -0.363096E-02  0.302E-01    0.56       1.0  T
   7    -30.2932855 -0.426708E-03  0.226E-01    0.46       1.0  T
   8    -30.2935606 -0.275158E-03  0.129E-01    0.33       1.0  T
   9    -30.2936475 -0.868249E-04  0.482E-02    0.25       1.0  T
  10    -30.2936797 -0.322393E-04  0.319E-02    0.30       1.0  T
  11    -30.2936949 -0.152447E-04  0.951E-03    0.28       2.5  T
  12    -30.2936955 -0.571862E-06  0.280E-03    0.28       8.4  T
  13    -30.2936956 -0.638512E-07  0.120E-03    0.28      19.6  T
  14    -30.2936956  0.190946E-08  0.729E-04    0.28      32.3  T
  15    -30.2936956 -0.489505E-08  0.237E-04    0.28      99.5  T

   *** convergence criteria satisfied after 15 iterations ***

         #    Occupation            Energy/Eh            Energy/eV
      -------------------------------------------------------------
         1        2.0000           -0.5528349             -15.0434
       ...           ...                  ...                  ...
        22        2.0000           -0.2564890              -6.9794
        23        2.0000           -0.2508412              -6.8257
        24        2.0000           -0.2465848              -6.7099
        25        2.0000           -0.2325289              -6.3274
        26        2.0000           -0.1835485              -4.9946
        27        2.0000           -0.1610592              -4.3826
        28        1.9911           -0.0939293              -2.5559 (HOMO)
        29        0.0089           -0.0836583              -2.2765 (LUMO)
        30                         -0.0518391              -1.4106
        31                          0.0032300               0.0879
        32                          0.0049413               0.1345
        33                          0.0670371               1.8242
       ...                                ...                  ...
        56                          0.9095590              24.7504
      -------------------------------------------------------------
                  HL-Gap            0.0102710 Eh            0.2795 eV
             Fermi-level           -0.0887938 Eh           -2.4162 eV
 
 localization/xTB-IFF output generation
 averaging CT terms over            1  occ. levels
 averaging CT terms over            1  virt. levels
 dipole moment from electron density (au)
     X       Y       Z   
  -3.0370  -0.7636  -0.4085  total (Debye):    8.027
cpu  time for init local    0.00 s
wall time for init local    0.00 s
 doing rotations ...
 initialization of trafo matrix to unity

 converged in     47 iterations, threshold :   0.99463516D-06
 doing transformations ...
 lmo centers(Z=2) and atoms on file <lmocent.coord>
 LMO Fii/eV  ncent    charge center   contributions...
    1 sigma -13.36   1.95  -4.56883  -2.44101  -0.65467    7N :  0.57    6N :  0.44
    2 sigma -12.87   1.92  -6.24506  -1.28193  -0.54921    7N :  0.58    8C :  0.43
    3 sigma -12.61   1.97  -6.42882  -3.30089  -0.92622    7N :  0.56   15H :  0.44
    4 sigma -11.30   2.01  -7.96640   0.45878  -0.34060   16H :  0.51    8C :  0.49
    5 sigma -10.54   1.99  -3.46592   0.78643  -0.00053    9C :  0.52    5C :  0.48
    6 sigma -10.31   2.01  -4.50220   2.86380   0.31166   17H :  0.51    9C :  0.49
    7 pi     -9.85   2.15  -5.45150   0.87808  -0.62469    9C :  0.49    8C :  0.48
    8 pi     -9.85   2.16  -5.51350   0.69710   0.37265    9C :  0.49    8C :  0.48
    9 pi     -9.72   2.13  -2.97904  -1.47056   0.09181    6N :  0.54    5C :  0.42
   10 pi     -9.71   2.13  -2.92209  -1.30592  -0.81675    6N :  0.54    5C :  0.42
   11 sigma  -9.66   2.01  -1.15845   0.20048   0.03809    5C :  0.54    4C :  0.45
   12 sigma  -9.58   1.97   8.06253  -0.81420   0.90360   14H :  0.51    1C :  0.50
   13 sigma  -9.56   1.99   7.43243  -1.71600  -1.05326   13H :  0.51    1C :  0.49
   14 pi     -9.53   1.53  -5.56012  -1.98735  -0.63357    7N :  0.80    8C :  0.10
   15 sigma  -9.51   1.98   6.92576  -2.74506   0.87279   12H :  0.51    1C :  0.50
   16 sigma  -9.38   1.96   5.92371  -0.82023   0.31885    1C :  0.55    2C :  0.46
   17 sigma  -9.38   1.95   2.68823   3.18035   0.82377   11S :  0.57   10C :  0.43
   18 sigma  -9.34   1.99   0.21683   4.13579   0.83572   18H :  0.53   10C :  0.47
   19 sigma  -8.73   1.75   4.63538   1.82061   0.70606   11S :  0.69    2C :  0.30
   20 LP     -8.48   1.16   4.67920   4.57065  -1.24705   11S :  0.93
   21 LP     -8.42   1.16   4.31636   3.65175   3.49555   11S :  0.93
   22 sigma  -8.42   2.01   1.17111  -0.23347   0.10898    4C :  0.55    3C :  0.44
   23 pi     -7.97   2.20   0.56870   1.61768   0.92453   10C :  0.48    4C :  0.47
   24 delpi  -7.96   2.20   0.63493   1.80375  -0.07574   10C :  0.48    4C :  0.47
   25 LP     -7.78   1.02  -2.39302  -4.10728  -0.82058    6N :  0.99
   26 pi     -6.73   2.18   3.46585  -0.40483   0.75531    2C :  0.55    3C :  0.40
   27 pi     -6.71   2.20   3.52603  -0.22747  -0.25516    2C :  0.54    3C :  0.40
   28 LP     -4.21   1.33   3.20880  -2.15288  -0.08222    3C :  0.86    2C :  0.10
 starting deloc pi regularization ...
 thr    2.20000000000000      # pi deloc LMO           5
 files:
 coordprot.0/xtbscreen.xyz/xtblmoinfo/lmocent.coord
 with protonation site input, xtbdock and
 LMO center info written
 

 SCC (total)                   0 d,  0 h,  0 min,  0.052 sec
 SCC setup                      ...        0 min,  0.000 sec (  0.613%)
 Dispersion                     ...        0 min,  0.000 sec (  0.466%)
 classical contributions        ...        0 min,  0.000 sec (  0.128%)
 integral evaluation            ...        0 min,  0.005 sec (  8.960%)
 iterations                     ...        0 min,  0.017 sec ( 33.670%)
 molecular gradient             ...        0 min,  0.010 sec ( 18.613%)
 printout                       ...        0 min,  0.019 sec ( 37.447%)

         :::::::::::::::::::::::::::::::::::::::::::::::::::::
         ::                     SUMMARY                     ::
         :::::::::::::::::::::::::::::::::::::::::::::::::::::
         :: total energy             -29.871650474371 Eh    ::
         :: gradient norm              0.105061939751 Eh/a0 ::
         :: HOMO-LUMO gap              0.279488009818 eV    ::
         ::.................................................::
         :: SCC energy               -30.293695579605 Eh    ::
         :: -> isotropic ES            0.114197385980 Eh    ::
         :: -> anisotropic ES          0.012340271304 Eh    ::
         :: -> anisotropic XC          0.017348174875 Eh    ::
         :: -> dispersion             -0.018147961294 Eh    ::
         :: repulsion energy           0.422096943823 Eh    ::
         :: add. restraining           0.000000000000 Eh    ::
         :: total charge              -1.000000000000 e     ::
         :::::::::::::::::::::::::::::::::::::::::::::::::::::

      ----------------------------------------------------------- 
     |                   =====================                   |
     |                        A N C O P T                        |
     |                   =====================                   |
     |               Approximate Normal Coordinate               |
     |                Rational Function Optimizer                |
      ----------------------------------------------------------- 

          ...................................................
          :                      SETUP                      :
          :.................................................:
          :   optimization level            normal          :
          :   max. optcycles                   200          :
          :   ANC micro-cycles                  20          :
          :   degrees of freedom                48          :
          :.................................................:
          :   RF solver                   davidson          :
          :   write xtbopt.log                true          :
          :   linear?                        false          :
          :   energy convergence         0.5000000E-05 Eh   :
          :   grad. convergence          0.1000000E-02 Eh/α :
          :   maximium RF displ.         1.0000000          :
          :   Hlow (freq-cutoff)         0.1000000E-01      :
          :   Hmax (freq-cutoff)         5.0000000          :
          :   S6 in model hess.         20.0000000          :
          ...................................................

generating ANC from model Hessian ...
Using Lindh-Hessian (1995)
 Shifting diagonal of input Hessian by   8.084097692893722E-003
 Lowest  eigenvalues of input Hessian
    0.000000    0.000000    0.000000    0.000000    0.000000    0.000000
    0.010000    0.011812    0.012659    0.015481    0.018474    0.027496
    0.029397    0.034888    0.044030    0.048564    0.059389    0.073621
 Highest eigenvalues
    1.720892    1.756162    1.904297    1.928242    1.985934    2.065486
 

........................................................................
.............................. CYCLE    1 ..............................
........................................................................
   1    -30.2936956 -0.302937E+02  0.194E-04    0.28       0.0  T
   2    -30.2936956  0.163364E-09  0.192E-04    0.28     122.8  T
   3    -30.2936956 -0.782492E-09  0.723E-05    0.28     325.8  T
     SCC iter.                  ...        0 min,  0.004 sec
     gradient                   ...        0 min,  0.010 sec
 * total energy  :   -29.8716505 Eh     change       -0.6166481E-09 Eh
   gradient norm :     0.1050622 Eh/α   predicted     0.0000000E+00 (-100.00%)
   displ. norm   :     0.3197578 α      lambda       -0.2368122E-01
   maximum displ.:     0.1834123 α      in ANC's #9, #31, #13, ...

........................................................................
.............................. CYCLE    2 ..............................
........................................................................
   1    -30.3083516 -0.303084E+02  0.645E-01    0.77       0.0  T
   2    -30.3083075  0.441128E-04  0.403E-01    0.80       1.0  T
   3    -30.3072853  0.102226E-02  0.330E-01    0.75       1.0  T
   4    -30.3087985 -0.151323E-02  0.554E-02    0.78       1.0  T
   5    -30.3088061 -0.766157E-05  0.341E-02    0.77       1.0  T
   6    -30.3088150 -0.882260E-05  0.991E-03    0.78       2.4  T
   7    -30.3088154 -0.422476E-06  0.657E-03    0.77       3.6  T
   8    -30.3088159 -0.488524E-06  0.287E-03    0.77       8.2  T
   9    -30.3088159 -0.250162E-07  0.820E-04    0.77      28.8  T
  10    -30.3088159 -0.735863E-08  0.320E-04    0.77      73.5  T
     SCC iter.                  ...        0 min,  0.012 sec
     gradient                   ...        0 min,  0.010 sec
 * total energy  :   -29.8877610 Eh     change       -0.1611057E-01 Eh
   gradient norm :     0.0454818 Eh/α   predicted    -0.1305125E-01 ( -18.99%)
   displ. norm   :     0.2614215 α      lambda       -0.6423774E-02
   maximum displ.:     0.1728521 α      in ANC's #9, #7, #31, ...

........................................................................
.............................. CYCLE    3 ..............................
........................................................................
   1    -30.3174011 -0.303174E+02  0.370E-01    1.03       0.0  T
   2    -30.3173612  0.398976E-04  0.256E-01    1.10       1.0  T
   3    -30.3174750 -0.113760E-03  0.171E-01    1.06       1.0  T
   4    -30.3177659 -0.290941E-03  0.420E-02    1.08       1.0  T
   5    -30.3177768 -0.108313E-04  0.208E-02    1.07       1.1  T
   6    -30.3177789 -0.212819E-05  0.109E-02    1.08       2.2  T
   7    -30.3177805 -0.159781E-05  0.419E-03    1.07       5.6  T
   8    -30.3177807 -0.194616E-06  0.193E-03    1.07      12.2  T
   9    -30.3177807 -0.768776E-08  0.557E-04    1.07      42.3  T
  10    -30.3177807 -0.114827E-08  0.207E-04    1.07     113.7  T
     SCC iter.                  ...        0 min,  0.011 sec
     gradient                   ...        0 min,  0.010 sec
 * total energy  :   -29.8916225 Eh     change       -0.3861451E-02 Eh
   gradient norm :     0.0240940 Eh/α   predicted    -0.3431392E-02 ( -11.14%)
   displ. norm   :     0.1430067 α      lambda       -0.1115013E-02
   maximum displ.:     0.0791000 α      in ANC's #7, #9, #3, ...

........................................................................
.............................. CYCLE    4 ..............................
........................................................................
   1    -30.3214527 -0.303215E+02  0.153E-01    1.13       0.0  T
   2    -30.3214221  0.306210E-04  0.122E-01    1.18       1.0  T
   3    -30.3215884 -0.166323E-03  0.541E-02    1.15       1.0  T
   4    -30.3216136 -0.252755E-04  0.240E-02    1.15       1.0  T
   5    -30.3216173 -0.363500E-05  0.878E-03    1.15       2.7  T
   6    -30.3216175 -0.170009E-06  0.589E-03    1.15       4.0  T
   7    -30.3216178 -0.376391E-06  0.190E-03    1.15      12.4  T
   8    -30.3216179 -0.218892E-07  0.101E-03    1.15      23.4  T
   9    -30.3216179 -0.229329E-08  0.366E-04    1.15      64.4  T
  10    -30.3216179 -0.914582E-09  0.858E-05    1.15     274.7  T
     SCC iter.                  ...        0 min,  0.011 sec
     gradient                   ...        0 min,  0.010 sec
 * total energy  :   -29.8924830 Eh     change       -0.8605263E-03 Eh
   gradient norm :     0.0212483 Eh/α   predicted    -0.5689062E-03 ( -33.89%)
   displ. norm   :     0.2129108 α      lambda       -0.1421739E-02
   maximum displ.:     0.1263222 α      in ANC's #3, #7, #9, ...

........................................................................
.............................. CYCLE    5 ..............................
........................................................................
   1    -30.3266325 -0.303266E+02  0.305E-01    1.19       0.0  T
   2    -30.3264125  0.219995E-03  0.250E-01    1.29       1.0  T
   3    -30.3272399 -0.827390E-03  0.109E-01    1.22       1.0  T
   4    -30.3273524 -0.112427E-03  0.501E-02    1.23       1.0  T
   5    -30.3273674 -0.150515E-04  0.148E-02    1.23       1.6  T
   6    -30.3273681 -0.739506E-06  0.101E-02    1.23       2.3  T
   7    -30.3273690 -0.894334E-06  0.374E-03    1.23       6.3  T
   8    -30.3273691 -0.670452E-07  0.174E-03    1.23      13.6  T
   9    -30.3273691 -0.565782E-08  0.529E-04    1.23      44.6  T
  10    -30.3273691 -0.238521E-08  0.152E-04    1.23     154.8  T
     SCC iter.                  ...        0 min,  0.011 sec
     gradient                   ...        0 min,  0.010 sec
 * total energy  :   -29.8935178 Eh     change       -0.1034814E-02 Eh
   gradient norm :     0.0183301 Eh/α   predicted    -0.7430961E-03 ( -28.19%)
   displ. norm   :     0.1967250 α      lambda       -0.1208894E-02
   maximum displ.:     0.1283038 α      in ANC's #3, #7, #40, ...

........................................................................
.............................. CYCLE    6 ..............................
........................................................................
   1    -30.3322424 -0.303322E+02  0.417E-01    1.26       0.0  T
   2    -30.3315898  0.652630E-03  0.357E-01    1.39       1.0  T
   3    -30.3334561 -0.186627E-02  0.151E-01    1.30       1.0  T
   4    -30.3336734 -0.217341E-03  0.663E-02    1.31       1.0  T
   5    -30.3336987 -0.252960E-04  0.156E-02    1.31       1.5  T
   6    -30.3336990 -0.317337E-06  0.111E-02    1.31       2.1  T
   7    -30.3337000 -0.926554E-06  0.488E-03    1.31       4.8  T
   8    -30.3337001 -0.143820E-06  0.205E-03    1.31      11.5  T
   9    -30.3337001 -0.105916E-07  0.494E-04    1.31      47.7  T
  10    -30.3337001 -0.169791E-08  0.185E-04    1.31     127.4  T
     SCC iter.                  ...        0 min,  0.011 sec
     gradient                   ...        0 min,  0.009 sec
 * total energy  :   -29.8944704 Eh     change       -0.9525747E-03 Eh
   gradient norm :     0.0165852 Eh/α   predicted    -0.6278471E-03 ( -34.09%)
   displ. norm   :     0.2714932 α      lambda       -0.1749368E-02
   maximum displ.:     0.1602298 α      in ANC's #3, #40, #34, ...

........................................................................
.............................. CYCLE    7 ..............................
........................................................................
   1    -30.3387558 -0.303388E+02  0.769E-01    1.41       0.0  T
   2    -30.3355757  0.318005E-02  0.693E-01    1.60       1.0  T
   3    -30.3432355 -0.765980E-02  0.276E-01    1.48       1.0  T
   4    -30.3439754 -0.739818E-03  0.112E-01    1.48       1.0  T
   5    -30.3440379 -0.625537E-04  0.236E-02    1.48       1.0  T
   6    -30.3440382 -0.247248E-06  0.135E-02    1.48       1.7  T
   7    -30.3440390 -0.804032E-06  0.863E-03    1.48       2.7  T
   8    -30.3440396 -0.640759E-06  0.320E-03    1.48       7.4  T
   9    -30.3440396 -0.236648E-07  0.678E-04    1.48      34.8  T
  10    -30.3440396 -0.297183E-08  0.287E-04    1.48      82.1  T
     SCC iter.                  ...        0 min,  0.011 sec
     gradient                   ...        0 min,  0.009 sec
 * total energy  :   -29.8959579 Eh     change       -0.1487477E-02 Eh
   gradient norm :     0.0167743 Eh/α   predicted    -0.9391614E-03 ( -36.86%)
   displ. norm   :     0.5447642 α      lambda       -0.3808529E-02
   maximum displ.:     0.2280891 α      in ANC's #3, #34, #40, ...

........................................................................
.............................. CYCLE    8 ..............................
........................................................................
   1    -30.3426519 -0.303427E+02  0.155E+00    1.84       0.0  T
   2    -30.3271540  0.154979E-01  0.149E+00    1.79       1.0  T
   3    -30.3607036 -0.335497E-01  0.593E-01    1.83       1.0  T
   4    -30.3632960 -0.259236E-02  0.175E-01    1.79       1.0  T
   5    -30.3634035 -0.107515E-03  0.496E-02    1.77       1.0  T
   6    -30.3634080 -0.446899E-05  0.284E-02    1.78       1.0  T
   7    -30.3634119 -0.388110E-05  0.115E-02    1.78       2.0  T
   8    -30.3634127 -0.832655E-06  0.627E-03    1.78       3.8  T
   9    -30.3634129 -0.197015E-06  0.262E-03    1.78       9.0  T
  10    -30.3634129 -0.120172E-07  0.592E-04    1.78      39.8  T
  11    -30.3634129 -0.179346E-08  0.299E-04    1.78      78.7  T
     SCC iter.                  ...        0 min,  0.012 sec
     gradient                   ...        0 min,  0.009 sec
 * total energy  :   -29.8997591 Eh     change       -0.3801233E-02 Eh
   gradient norm :     0.0236396 Eh/α   predicted    -0.2469392E-02 ( -35.04%)
   displ. norm   :     0.9014686 α      lambda       -0.7984478E-02
   maximum displ.:     0.3927999 α      in ANC's #34, #40, #13, ...

........................................................................
.............................. CYCLE    9 ..............................
........................................................................
   1    -30.3332990 -0.303333E+02  0.171E+00    2.02       0.0  T
   2    -30.3032797  0.300193E-01  0.183E+00    1.68       1.0  T
   3    -30.3516400 -0.483603E-01  0.755E-01    1.82       1.0  T
   4    -30.3539366 -0.229660E-02  0.102E-01    1.74       1.0  T
   5    -30.3539838 -0.472284E-04  0.584E-02    1.73       1.0  T
   6    -30.3540050 -0.211508E-04  0.335E-02    1.73       1.0  T
   7    -30.3540145 -0.954066E-05  0.644E-03    1.73       3.7  T
   8    -30.3540148 -0.318729E-06  0.320E-03    1.74       7.4  T
   9    -30.3540149 -0.397248E-07  0.159E-03    1.74      14.8  T
  10    -30.3540149 -0.873277E-08  0.487E-04    1.74      48.4  T
  11    -30.3540149 -0.768448E-09  0.239E-04    1.74      98.6  T
     SCC iter.                  ...        0 min,  0.012 sec
     gradient                   ...        0 min,  0.009 sec
 * total energy  :   -29.8999556 Eh     change       -0.1964963E-03 Eh
   gradient norm :     0.1374990 Eh/α   predicted    -0.7236515E-02 (3582.77%)
   displ. norm   :     0.3311643 α      lambda       -0.1053340E-01
   maximum displ.:     0.1484512 α      in ANC's #34, #40, #7, ...

........................................................................
.............................. CYCLE   10 ..............................
........................................................................
   1    -30.3800081 -0.303800E+02  0.628E-01    1.73       0.0  T
   2    -30.3786081  0.140002E-02  0.525E-01    1.79       1.0  T
   3    -30.3809998 -0.239163E-02  0.302E-01    1.75       1.0  T
   4    -30.3817013 -0.701537E-03  0.479E-02    1.79       1.0  T
   5    -30.3817220 -0.207257E-04  0.185E-02    1.78       1.3  T
   6    -30.3817244 -0.241237E-05  0.759E-03    1.78       3.1  T
   7    -30.3817245 -0.493091E-07  0.367E-03    1.78       6.4  T
   8    -30.3817246 -0.148516E-06  0.155E-03    1.78      15.2  T
   9    -30.3817246 -0.121634E-09  0.838E-04    1.78      28.1  T
  10    -30.3817246 -0.585960E-08  0.193E-04    1.78     122.3  T
     SCC iter.                  ...        0 min,  0.011 sec
     gradient                   ...        0 min,  0.010 sec
 * total energy  :   -29.9040641 Eh     change       -0.4108495E-02 Eh
   gradient norm :     0.0327760 Eh/α   predicted    -0.5844301E-02 (  42.25%)
   displ. norm   :     0.2474009 α      lambda       -0.1496236E-02
   maximum displ.:     0.1918790 α      in ANC's #3, #4, #5, ...

........................................................................
.............................. CYCLE   11 ..............................
........................................................................
   1    -30.3861299 -0.303861E+02  0.159E-01    1.80       0.0  T
   2    -30.3861332 -0.328433E-05  0.957E-02    1.79       1.0  T
   3    -30.3860927  0.405340E-04  0.864E-02    1.80       1.0  T
   4    -30.3861725 -0.798427E-04  0.240E-02    1.79       1.0  T
   5    -30.3861819 -0.934451E-05  0.735E-03    1.79       3.2  T
   6    -30.3861823 -0.446148E-06  0.325E-03    1.79       7.3  T
   7    -30.3861824 -0.532154E-07  0.155E-03    1.79      15.2  T
   8    -30.3861824 -0.188368E-07  0.533E-04    1.79      44.2  T
   9    -30.3861824 -0.174265E-08  0.281E-04    1.79      83.9  T
     SCC iter.                  ...        0 min,  0.010 sec
     gradient                   ...        0 min,  0.009 sec
 * total energy  :   -29.9048417 Eh     change       -0.7776112E-03 Eh
   gradient norm :     0.0447639 Eh/α   predicted    -0.7939096E-03 (   2.10%)
   displ. norm   :     0.6841286 α      lambda       -0.1065854E-01
   maximum displ.:     0.3716256 α      in ANC's #13, #11, #7, ...

........................................................................
.............................. CYCLE   12 ..............................
........................................................................
   1    -30.3447128 -0.303447E+02  0.998E-01    1.89       0.0  T
   2    -30.3392166  0.549617E-02  0.911E-01    1.89       1.0  T
   3    -30.3470815 -0.786487E-02  0.498E-01    1.92       1.0  T
   4    -30.3484578 -0.137628E-02  0.197E-01    1.87       1.0  T
   5    -30.3491096 -0.651806E-03  0.415E-02    1.90       1.0  T
   6    -30.3491233 -0.137413E-04  0.182E-02    1.89       1.3  T
   7    -30.3491242 -0.826598E-06  0.665E-03    1.89       3.5  T
   8    -30.3491246 -0.473392E-06  0.234E-03    1.89      10.1  T
   9    -30.3491246 -0.211789E-08  0.118E-03    1.89      20.0  T
  10    -30.3491247 -0.977820E-08  0.329E-04    1.89      71.5  T
  11    -30.3491247 -0.215682E-09  0.184E-04    1.89     128.0  T
     SCC iter.                  ...        0 min,  0.012 sec
     gradient                   ...        0 min,  0.009 sec
 * total energy  :   -29.8976247 Eh     change        0.7216997E-02 Eh
   gradient norm :     0.1409231 Eh/α   predicted    -0.7823557E-02 (-208.40%)
   displ. norm   :     0.3115244 α      lambda       -0.1893005E-01
   maximum displ.:     0.1812793 α      in ANC's #7, #13, #23, ...

........................................................................
.............................. CYCLE   13 ..............................
........................................................................
   1    -30.3809811 -0.303810E+02  0.449E-01    1.85       0.0  T
   2    -30.3810356 -0.545118E-04  0.348E-01    1.80       1.0  T
   3    -30.3814676 -0.432022E-03  0.193E-01    1.81       1.0  T
   4    -30.3814819 -0.142622E-04  0.115E-01    1.83       1.0  T
   5    -30.3816880 -0.206141E-03  0.330E-02    1.81       1.0  T
   6    -30.3817002 -0.122122E-04  0.126E-02    1.81       1.9  T
   7    -30.3817009 -0.718627E-06  0.440E-03    1.81       5.4  T
   8    -30.3817011 -0.216861E-06  0.142E-03    1.81      16.6  T
   9    -30.3817011 -0.143734E-08  0.703E-04    1.81      33.5  T
  10    -30.3817011 -0.305971E-08  0.251E-04    1.81      93.8  T
     SCC iter.                  ...        0 min,  0.011 sec
     gradient                   ...        0 min,  0.009 sec
 * total energy  :   -29.9087910 Eh     change       -0.1116631E-01 Eh
   gradient norm :     0.0519439 Eh/α   predicted    -0.1038357E-01 (  -7.01%)
   displ. norm   :     0.2379437 α      lambda       -0.2401100E-02
   maximum displ.:     0.1360490 α      in ANC's #3, #7, #9, ...

........................................................................
.............................. CYCLE   14 ..............................
........................................................................
   1    -30.3926362 -0.303926E+02  0.185E-01    1.82       0.0  T
   2    -30.3925573  0.789373E-04  0.137E-01    1.78       1.0  T
   3    -30.3926627 -0.105456E-03  0.980E-02    1.80       1.0  T
   4    -30.3927544 -0.917325E-04  0.195E-02    1.79       1.2  T
   5    -30.3927580 -0.353339E-05  0.109E-02    1.79       2.2  T
   6    -30.3927589 -0.970630E-06  0.357E-03    1.79       6.6  T
   7    -30.3927590 -0.822758E-07  0.942E-04    1.79      25.0  T
   8    -30.3927590 -0.500110E-08  0.469E-04    1.79      50.2  T
     SCC iter.                  ...        0 min,  0.009 sec
     gradient                   ...        0 min,  0.009 sec
 * total energy  :   -29.9106044 Eh     change       -0.1813374E-02 Eh
   gradient norm :     0.0358884 Eh/α   predicted    -0.1268522E-02 ( -30.05%)
   displ. norm   :     0.4279995 α      lambda       -0.3076591E-02
   maximum displ.:     0.3033790 α      in ANC's #3, #11, #9, ...

........................................................................
.............................. CYCLE   15 ..............................
........................................................................
   1    -30.4053088 -0.304053E+02  0.261E-01    1.81       0.0  T
   2    -30.4052204  0.883581E-04  0.176E-01    1.77       1.0  T
   3    -30.4052401 -0.196267E-04  0.144E-01    1.80       1.0  T
   4    -30.4054744 -0.234347E-03  0.158E-02    1.79       1.5  T
   5    -30.4054763 -0.190527E-05  0.774E-03    1.78       3.0  T
   6    -30.4054768 -0.475019E-06  0.314E-03    1.78       7.5  T
   7    -30.4054769 -0.696918E-07  0.113E-03    1.78      20.9  T
   8    -30.4054769 -0.130088E-07  0.482E-04    1.78      48.9  T
   9    -30.4054769 -0.709683E-09  0.201E-04    1.78     117.5  T
     SCC iter.                  ...        0 min,  0.010 sec
     gradient                   ...        0 min,  0.009 sec
 * total energy  :   -29.9130349 Eh     change       -0.2430476E-02 Eh
   gradient norm :     0.0164526 Eh/α   predicted    -0.1820086E-02 ( -25.11%)
   displ. norm   :     0.6871662 α      lambda       -0.3600609E-02
   maximum displ.:     0.4680137 α      in ANC's #3, #11, #9, ...

........................................................................
.............................. CYCLE   16 ..............................
........................................................................
   1    -30.4012842 -0.304013E+02  0.546E-01    1.80       0.0  T
   2    -30.4007551  0.529126E-03  0.380E-01    1.76       1.0  T
   3    -30.4009093 -0.154189E-03  0.306E-01    1.79       1.0  T
   4    -30.4019607 -0.105140E-02  0.257E-02    1.77       1.0  T
   5    -30.4019659 -0.524148E-05  0.127E-02    1.77       1.9  T
   6    -30.4019669 -0.930726E-06  0.328E-03    1.77       7.2  T
   7    -30.4019669 -0.796170E-07  0.189E-03    1.77      12.4  T
   8    -30.4019669 -0.114204E-07  0.929E-04    1.77      25.4  T
   9    -30.4019669 -0.145095E-08  0.407E-04    1.77      57.9  T
     SCC iter.                  ...        0 min,  0.010 sec
     gradient                   ...        0 min,  0.009 sec
 * total energy  :   -29.9158561 Eh     change       -0.2821180E-02 Eh
   gradient norm :     0.0299858 Eh/α   predicted    -0.2650382E-02 (  -6.05%)
   displ. norm   :     0.6715685 α      lambda       -0.3096967E-02
   maximum displ.:     0.5372517 α      in ANC's #3, #11, #9, ...

........................................................................
.............................. CYCLE   17 ..............................
........................................................................
   1    -30.4014546 -0.304015E+02  0.381E-01    1.78       0.0  T
   2    -30.4013261  0.128494E-03  0.248E-01    1.78       1.0  T
   3    -30.4010343  0.291757E-03  0.218E-01    1.79       1.0  T
   4    -30.4016570 -0.622728E-03  0.205E-02    1.78       1.1  T
   5    -30.4016620 -0.495654E-05  0.816E-03    1.78       2.9  T
   6    -30.4016622 -0.252593E-06  0.292E-03    1.78       8.1  T
   7    -30.4016623 -0.715074E-07  0.124E-03    1.78      19.0  T
   8    -30.4016623 -0.115584E-07  0.589E-04    1.78      40.0  T
   9    -30.4016623 -0.820339E-09  0.241E-04    1.78      97.7  T
     SCC iter.                  ...        0 min,  0.010 sec
     gradient                   ...        0 min,  0.009 sec
 * total energy  :   -29.9181308 Eh     change       -0.2274772E-02 Eh
   gradient norm :     0.0187418 Eh/α   predicted    -0.2246854E-02 (  -1.23%)
   displ. norm   :     0.6003789 α      lambda       -0.1983948E-02
   maximum displ.:     0.4677546 α      in ANC's #3, #7, #11, ...

........................................................................
.............................. CYCLE   18 ..............................
........................................................................
   1    -30.3979628 -0.303980E+02  0.380E-01    1.81       0.0  T
   2    -30.3978784  0.844007E-04  0.240E-01    1.77       1.0  T
   3    -30.3974217  0.456737E-03  0.220E-01    1.79       1.0  T
   4    -30.3981232 -0.701512E-03  0.259E-02    1.78       1.0  T
   5    -30.3981307 -0.747447E-05  0.117E-02    1.78       2.0  T
   6    -30.3981316 -0.922699E-06  0.423E-03    1.78       5.6  T
   7    -30.3981317 -0.173749E-06  0.167E-03    1.78      14.1  T
   8    -30.3981318 -0.101091E-07  0.940E-04    1.78      25.1  T
   9    -30.3981318 -0.596660E-09  0.319E-04    1.78      73.9  T
     SCC iter.                  ...        0 min,  0.010 sec
     gradient                   ...        0 min,  0.009 sec
 * total energy  :   -29.9196532 Eh     change       -0.1522322E-02 Eh
   gradient norm :     0.0228743 Eh/α   predicted    -0.1349539E-02 ( -11.35%)
   displ. norm   :     0.5227680 α      lambda       -0.2051646E-02
   maximum displ.:     0.4478217 α      in ANC's #3, #7, #11, ...

........................................................................
.............................. CYCLE   19 ..............................
........................................................................
   1    -30.4098017 -0.304098E+02  0.208E-01    1.83       0.0  T
   2    -30.4098298 -0.280927E-04  0.129E-01    1.79       1.0  T
   3    -30.4097838  0.460057E-04  0.816E-02    1.81       1.0  T
   4    -30.4098472 -0.633890E-04  0.302E-02    1.80       1.0  T
   5    -30.4098624 -0.152374E-04  0.791E-03    1.80       3.0  T
   6    -30.4098630 -0.538457E-06  0.390E-03    1.80       6.0  T
   7    -30.4098631 -0.112746E-06  0.135E-03    1.80      17.5  T
   8    -30.4098631 -0.100656E-07  0.614E-04    1.80      38.4  T
   9    -30.4098631 -0.189672E-09  0.244E-04    1.80      96.6  T
     SCC iter.                  ...        0 min,  0.010 sec
     gradient                   ...        0 min,  0.009 sec
 * total energy  :   -29.9207485 Eh     change       -0.1095336E-02 Eh
   gradient norm :     0.0298712 Eh/α   predicted    -0.1306173E-02 (  19.25%)
   displ. norm   :     0.4659785 α      lambda       -0.1435029E-02
   maximum displ.:     0.3940192 α      in ANC's #3, #7, #11, ...

........................................................................
.............................. CYCLE   20 ..............................
........................................................................
   1    -30.4016114 -0.304016E+02  0.295E-01    1.81       0.0  T
   2    -30.4016081  0.332460E-05  0.182E-01    1.77       1.0  T
   3    -30.4013435  0.264555E-03  0.154E-01    1.80       1.0  T
   4    -30.4016885 -0.344973E-03  0.290E-02    1.78       1.0  T
   5    -30.4017014 -0.128857E-04  0.970E-03    1.78       2.4  T
   6    -30.4017020 -0.595913E-06  0.421E-03    1.78       5.6  T
   7    -30.4017021 -0.146146E-06  0.152E-03    1.78      15.5  T
   8    -30.4017021 -0.707690E-08  0.817E-04    1.78      28.9  T
   9    -30.4017021 -0.480135E-09  0.338E-04    1.78      69.8  T
     SCC iter.                  ...        0 min,  0.010 sec
     gradient                   ...        0 min,  0.010 sec
 * total energy  :   -29.9216331 Eh     change       -0.8846429E-03 Eh
   gradient norm :     0.0206545 Eh/α   predicted    -0.8733073E-03 (  -1.28%)
   displ. norm   :     0.2570939 α      lambda       -0.7761182E-03
   maximum displ.:     0.2292580 α      in ANC's #3, #7, #11, ...
 * RMSD in coord.:     0.9643456 α      energy gain  -0.4998267E-01 Eh

generating ANC from model Hessian ...
Using Lindh-Hessian (1995)
 Shifting diagonal of input Hessian by   9.352205542834930E-003
 Lowest  eigenvalues of input Hessian
    0.000000    0.000000    0.000000    0.000000    0.000000    0.000000
    0.010000    0.010703    0.010707    0.013002    0.015071    0.016870
    0.021631    0.026003    0.036573    0.043438    0.046481    0.056240
 Highest eigenvalues
    1.790124    1.839967    2.019290    2.045758    2.100655    2.585344
 

........................................................................
.............................. CYCLE   21 ..............................
........................................................................
   1    -30.4064229 -0.304064E+02  0.107E-01    1.79       0.0  T
   2    -30.4064336 -0.106975E-04  0.705E-02    1.77       1.0  T
   3    -30.4064358 -0.225233E-05  0.414E-02    1.78       1.0  T
   4    -30.4064440 -0.820696E-05  0.155E-02    1.78       1.5  T
   5    -30.4064474 -0.334488E-05  0.384E-03    1.77       6.1  T
   6    -30.4064475 -0.153471E-06  0.228E-03    1.77      10.3  T
   7    -30.4064476 -0.568250E-07  0.542E-04    1.77      43.5  T
   8    -30.4064476 -0.120013E-08  0.208E-04    1.77     113.5  T
     SCC iter.                  ...        0 min,  0.009 sec
     gradient                   ...        0 min,  0.009 sec
 * total energy  :   -29.9222305 Eh     change       -0.5973700E-03 Eh
   gradient norm :     0.0181211 Eh/α   predicted     0.0000000E+00 (-100.00%)
   displ. norm   :     0.1156560 α      lambda       -0.4813501E-03
   maximum displ.:     0.0941754 α      in ANC's #3, #2, #4, ...

........................................................................
.............................. CYCLE   22 ..............................
........................................................................
   1    -30.4134467 -0.304134E+02  0.673E-02    1.79       0.0  T
   2    -30.4134503 -0.363035E-05  0.400E-02    1.78       1.0  T
   3    -30.4134422  0.806452E-05  0.274E-02    1.78       1.0  T
   4    -30.4134515 -0.929902E-05  0.105E-02    1.78       2.2  T
   5    -30.4134531 -0.153554E-05  0.237E-03    1.78       9.9  T
   6    -30.4134531 -0.418754E-07  0.121E-03    1.78      19.6  T
   7    -30.4134531 -0.387983E-08  0.497E-04    1.78      47.4  T
   8    -30.4134531 -0.163947E-08  0.230E-04    1.78     102.4  T
     SCC iter.                  ...        0 min,  0.009 sec
     gradient                   ...        0 min,  0.009 sec
 * total energy  :   -29.9225610 Eh     change       -0.3305227E-03 Eh
   gradient norm :     0.0046473 Eh/α   predicted    -0.2438953E-03 ( -26.21%)
   displ. norm   :     0.1693120 α      lambda       -0.2745784E-03
   maximum displ.:     0.1291096 α      in ANC's #3, #2, #6, ...

........................................................................
.............................. CYCLE   23 ..............................
........................................................................
   1    -30.4162348 -0.304162E+02  0.775E-02    1.79       0.0  T
   2    -30.4162377 -0.298993E-05  0.445E-02    1.78       1.0  T
   3    -30.4162339  0.388378E-05  0.220E-02    1.79       1.1  T
   4    -30.4162389 -0.506550E-05  0.455E-03    1.79       5.2  T
   5    -30.4162392 -0.243533E-06  0.245E-03    1.79       9.6  T
   6    -30.4162392 -0.549694E-07  0.108E-03    1.79      21.8  T
   7    -30.4162392 -0.760329E-08  0.582E-04    1.79      40.5  T
   8    -30.4162392 -0.352149E-08  0.212E-04    1.79     111.0  T
     SCC iter.                  ...        0 min,  0.009 sec
     gradient                   ...        0 min,  0.009 sec
 * total energy  :   -29.9227693 Eh     change       -0.2082943E-03 Eh
   gradient norm :     0.0050027 Eh/α   predicted    -0.1412233E-03 ( -32.20%)
   displ. norm   :     0.2306250 α      lambda       -0.2420324E-03
   maximum displ.:     0.1659315 α      in ANC's #3, #2, #6, ...

........................................................................
.............................. CYCLE   24 ..............................
........................................................................
   1    -30.4163709 -0.304164E+02  0.101E-01    1.79       0.0  T
   2    -30.4163729 -0.195255E-05  0.597E-02    1.78       1.0  T
   3    -30.4163507  0.221795E-04  0.423E-02    1.79       1.0  T
   4    -30.4163765 -0.258571E-04  0.903E-03    1.79       2.6  T
   5    -30.4163779 -0.136529E-05  0.267E-03    1.79       8.8  T
   6    -30.4163779 -0.408963E-07  0.133E-03    1.79      17.7  T
   7    -30.4163780 -0.166918E-07  0.317E-04    1.79      74.3  T
   8    -30.4163780 -0.660098E-09  0.151E-04    1.79     156.0  T
     SCC iter.                  ...        0 min,  0.009 sec
     gradient                   ...        0 min,  0.009 sec
 * total energy  :   -29.9229722 Eh     change       -0.2029111E-03 Eh
   gradient norm :     0.0060993 Eh/α   predicted    -0.1274533E-03 ( -37.19%)
   displ. norm   :     0.3110645 α      lambda       -0.2780160E-03
   maximum displ.:     0.2141595 α      in ANC's #3, #2, #6, ...

........................................................................
.............................. CYCLE   25 ..............................
........................................................................
   1    -30.4147081 -0.304147E+02  0.149E-01    1.80       0.0  T
   2    -30.4147100 -0.193272E-05  0.902E-02    1.78       1.0  T
   3    -30.4146511  0.588482E-04  0.673E-02    1.79       1.0  T
   4    -30.4147206 -0.694258E-04  0.134E-02    1.79       1.8  T
   5    -30.4147233 -0.277646E-05  0.395E-03    1.78       6.0  T
   6    -30.4147234 -0.574541E-07  0.201E-03    1.78      11.7  T
   7    -30.4147234 -0.449059E-07  0.397E-04    1.78      59.4  T
   8    -30.4147234 -0.446818E-09  0.214E-04    1.78     110.1  T
     SCC iter.                  ...        0 min,  0.009 sec
     gradient                   ...        0 min,  0.010 sec
 * total energy  :   -29.9231933 Eh     change       -0.2211046E-03 Eh
   gradient norm :     0.0055862 Eh/α   predicted    -0.1524685E-03 ( -31.04%)
   displ. norm   :     0.3190549 α      lambda       -0.2195325E-03
   maximum displ.:     0.2190167 α      in ANC's #3, #2, #6, ...

........................................................................
.............................. CYCLE   26 ..............................
........................................................................
   1    -30.4128925 -0.304129E+02  0.152E-01    1.79       0.0  T
   2    -30.4128952 -0.269471E-05  0.922E-02    1.78       1.0  T
   3    -30.4128379  0.572997E-04  0.674E-02    1.79       1.0  T
   4    -30.4129063 -0.683669E-04  0.147E-02    1.78       1.6  T
   5    -30.4129095 -0.315221E-05  0.492E-03    1.78       4.8  T
   6    -30.4129096 -0.109043E-06  0.233E-03    1.78      10.1  T
   7    -30.4129096 -0.618231E-07  0.482E-04    1.78      48.9  T
   8    -30.4129096 -0.730207E-09  0.272E-04    1.78      86.8  T
     SCC iter.                  ...        0 min,  0.009 sec
     gradient                   ...        0 min,  0.009 sec
 * total energy  :   -29.9233438 Eh     change       -0.1504833E-03 Eh
   gradient norm :     0.0054680 Eh/α   predicted    -0.1209444E-03 ( -19.63%)
   displ. norm   :     0.2191830 α      lambda       -0.1183615E-03
   maximum displ.:     0.1547948 α      in ANC's #3, #2, #6, ...

........................................................................
.............................. CYCLE   27 ..............................
........................................................................
   1    -30.4130432 -0.304130E+02  0.121E-01    1.79       0.0  T
   2    -30.4130463 -0.306422E-05  0.718E-02    1.78       1.0  T
   3    -30.4130230  0.232814E-04  0.440E-02    1.79       1.0  T
   4    -30.4130499 -0.268319E-04  0.106E-02    1.78       2.2  T
   5    -30.4130514 -0.152249E-05  0.456E-03    1.78       5.2  T
   6    -30.4130515 -0.156384E-06  0.195E-03    1.78      12.1  T
   7    -30.4130516 -0.460463E-07  0.401E-04    1.78      58.8  T
   8    -30.4130516 -0.744933E-09  0.220E-04    1.78     107.1  T
     SCC iter.                  ...        0 min,  0.009 sec
     gradient                   ...        0 min,  0.009 sec
 * total energy  :   -29.9234204 Eh     change       -0.7661386E-04 Eh
   gradient norm :     0.0049030 Eh/α   predicted    -0.6202921E-04 ( -19.04%)
   displ. norm   :     0.1261310 α      lambda       -0.6237906E-04
   maximum displ.:     0.0937425 α      in ANC's #3, #2, #7, ...

........................................................................
.............................. CYCLE   28 ..............................
........................................................................
   1    -30.4147819 -0.304148E+02  0.684E-02    1.79       0.0  T
   2    -30.4147833 -0.142072E-05  0.399E-02    1.78       1.0  T
   3    -30.4147799  0.340844E-05  0.198E-02    1.79       1.2  T
   4    -30.4147841 -0.424625E-05  0.467E-03    1.78       5.0  T
   5    -30.4147843 -0.156634E-06  0.233E-03    1.78      10.1  T
   6    -30.4147843 -0.239384E-07  0.123E-03    1.78      19.2  T
   7    -30.4147843 -0.258235E-07  0.270E-04    1.78      87.3  T
   8    -30.4147843 -0.717531E-09  0.122E-04    1.78     193.9  T
     SCC iter.                  ...        0 min,  0.009 sec
     gradient                   ...        0 min,  0.009 sec
 * total energy  :   -29.9234602 Eh     change       -0.3971568E-04 Eh
   gradient norm :     0.0028326 Eh/α   predicted    -0.3168649E-04 ( -20.22%)
   displ. norm   :     0.0720558 α      lambda       -0.2077770E-04
   maximum displ.:     0.0546729 α      in ANC's #3, #2, #7, ...

........................................................................
.............................. CYCLE   29 ..............................
........................................................................
   1    -30.4156077 -0.304156E+02  0.387E-02    1.79       0.0  T
   2    -30.4156079 -0.199971E-06  0.221E-02    1.78       1.1  T
   3    -30.4156075  0.325269E-06  0.634E-03    1.78       3.7  T
   4    -30.4156079 -0.353680E-06  0.219E-03    1.78      10.8  T
   5    -30.4156079 -0.265424E-07  0.143E-03    1.78      16.5  T
   6    -30.4156079 -0.272312E-07  0.373E-04    1.78      63.1  T
   7    -30.4156079 -0.197542E-08  0.103E-04    1.78     227.8  T
     SCC iter.                  ...        0 min,  0.008 sec
     gradient                   ...        0 min,  0.009 sec
 * total energy  :   -29.9234746 Eh     change       -0.1442421E-04 Eh
   gradient norm :     0.0019692 Eh/α   predicted    -0.1044187E-04 ( -27.61%)
   displ. norm   :     0.0848018 α      lambda       -0.1150375E-04
   maximum displ.:     0.0632243 α      in ANC's #3, #2, #7, ...

........................................................................
.............................. CYCLE   30 ..............................
........................................................................
   1    -30.4159201 -0.304159E+02  0.470E-02    1.79       0.0  T
   2    -30.4159201 -0.651744E-07  0.272E-02    1.78       1.0  T
   3    -30.4159170  0.317529E-05  0.140E-02    1.79       1.7  T
   4    -30.4159204 -0.342942E-05  0.223E-03    1.78      10.6  T
   5    -30.4159204 -0.191538E-07  0.133E-03    1.78      17.8  T
   6    -30.4159204 -0.187154E-07  0.199E-04    1.78     118.3  T
   7    -30.4159204 -0.321663E-09  0.116E-04    1.78     202.7  T
     SCC iter.                  ...        0 min,  0.008 sec
     gradient                   ...        0 min,  0.009 sec
 * total energy  :   -29.9234834 Eh     change       -0.8841103E-05 Eh
   gradient norm :     0.0013466 Eh/α   predicted    -0.5768852E-05 ( -34.75%)
   displ. norm   :     0.0152399 α      lambda       -0.3138140E-05
   maximum displ.:     0.0099842 α      in ANC's #3, #6, #1, ...

........................................................................
.............................. CYCLE   31 ..............................
........................................................................
   1    -30.4159654 -0.304160E+02  0.775E-03    1.78       0.0  T
   2    -30.4159655 -0.461238E-07  0.466E-03    1.79       5.1  T
   3    -30.4159654  0.313655E-07  0.303E-03    1.78       7.8  T
   4    -30.4159655 -0.493645E-07  0.128E-03    1.78      18.4  T
   5    -30.4159655 -0.266184E-07  0.299E-04    1.78      78.9  T
   6    -30.4159655 -0.463789E-09  0.150E-04    1.78     157.6  T
     SCC iter.                  ...        0 min,  0.007 sec
     gradient                   ...        0 min,  0.009 sec
 * total energy  :   -29.9234871 Eh     change       -0.3633427E-05 Eh
   gradient norm :     0.0009032 Eh/α   predicted    -0.1568398E-05 ( -56.83%)
   displ. norm   :     0.0242587 α      lambda       -0.5228521E-05
   maximum displ.:     0.0134692 α      in ANC's #2, #1, #12, ...

   *** GEOMETRY OPTIMIZATION CONVERGED AFTER 31 ITERATIONS ***

------------------------------------------------------------------------
 total energy gain   :        -0.0518366 Eh      -32.5279 kcal/mol
 total RMSD          :         1.2607474 a0        0.6672 Å
 total power (kW/mol):        -4.3902236 (step) -176.9050 (real)
------------------------------------------------------------------------

 ANCopt (total)                0 d,  0 h,  0 min,  0.769 sec
 optimizer setup                ...        0 min,  0.001 sec (  0.149%)
 model hessian                  ...        0 min,  0.004 sec (  0.533%)
 ANC generation                 ...        0 min,  0.001 sec (  0.185%)
 coordinate transformation      ...        0 min,  0.000 sec (  0.056%)
 single point calculation       ...        0 min,  0.748 sec ( 97.275%)
 optimization log               ...        0 min,  0.005 sec (  0.686%)
 hessian update                 ...        0 min,  0.000 sec (  0.056%)
 rational function              ...        0 min,  0.006 sec (  0.787%)

================
 final structure:
================
18
 xtb: 6.4.1 (afa7bdf)
C         3.52804079475133   -1.44089597064917    0.00642087468463
C         2.33464860867658   -0.61844487513324    0.08439079228039
C         1.32937232265159    0.04155002889591    0.13662407021673
C         0.18617050690144    0.86601595981068    0.21438989837511
C        -1.09102662489026    0.23992333301409    0.01751488017680
N        -1.21641382266175   -1.06861399320247   -0.22065226746176
N        -2.53742168906451   -1.29789454672332   -0.35080731701662
C        -3.26690105453065   -0.16693187542298   -0.20241380710299
C        -2.38321129426881    0.84606040252583    0.03580746872429
C         0.30445480998230    2.21228990647504    0.46864724468062
S         1.71907844047767    3.08409738339897    0.71926546983148
H         3.35530482284972   -2.41000751820078    0.48186191389059
H         3.81099632337070   -1.61149065311744   -1.03606540279051
H         4.35862821729094   -0.94627465753786    0.51360074729256
H        -2.86405206577947   -2.23064938693255   -0.53767371234102
H        -4.33898226615762   -0.17785687232070   -0.27724108788040
H        -2.61793594084690    1.87838683869219    0.20021734463646
H        -0.61075008875170    2.80073449642796    0.51756588980387
 
 Bond Distances (Angstroems)
 ---------------------------
C1-C2=1.4514         C1-H12=1.0932        C1-H13=1.0936        C1-H14=1.0917        C2-C1=1.4514         C2-C3=1.2037         
C3-C2=1.2037         C3-C4=1.4116         C4-C3=1.4116         C4-C5=1.4360         C4-C10=1.3752        C5-C4=1.4360         
C5-N6=1.3359         C5-C9=1.4274         N6-C5=1.3359         N6-N7=1.3471         N7-N6=1.3471         N7-C8=1.3540         
N7-H15=1.0058        C8-N7=1.3540         C8-C9=1.3652         C8-H16=1.0747        C9-C5=1.4274         C9-C8=1.3652         
C9-H17=1.0714        C10-C4=1.3752        C10-S11=1.6805       C10-H18=1.0892       S11-C10=1.6805       H12-C1=1.0932        
H13-C1=1.0936        H14-C1=1.0917        H15-N7=1.0058        H16-C8=1.0747        H17-C9=1.0714        H18-C10=1.0892       
 C  H  Rav=1.0856 sigma=0.0091  Rmin=1.0714  Rmax=1.0936     6
 C  C  Rav=1.3815 sigma=0.0782  Rmin=1.2037  Rmax=1.4514     7
 N  H  Rav=1.0058 sigma=0.0000  Rmin=1.0058  Rmax=1.0058     1
 N  C  Rav=1.3450 sigma=0.0090  Rmin=1.3359  Rmax=1.3540     2
 N  N  Rav=1.3471 sigma=0.0000  Rmin=1.3471  Rmax=1.3471     1
 S  C  Rav=1.6805 sigma=0.0000  Rmin=1.6805  Rmax=1.6805     1
 
 selected bond angles (degree)
 --------------------
H12-C1-C2=110.43               H13-C1-C2=110.63               H13-C1-H12=108.49              H14-C1-C2=110.11               
H14-C1-H12=108.65              H14-C1-H13=108.46              C3-C2-C1=178.58                C4-C3-C2=177.40                
C5-C4-C3=117.26                C10-C4-C3=120.82               C10-C4-C5=121.92               N6-C5-C4=122.34                
C9-C5-C4=128.19                C9-C5-N6=109.47                N7-N6-C5=106.02                C8-N7-N6=112.06                
H15-N7-N6=119.62               H15-N7-C8=128.32               C9-C8-N7=106.87                H16-C8-N7=121.42               
H16-C8-C9=131.71               C8-C9-C5=105.58                H17-C9-C5=127.55               H17-C9-C8=126.86               
S11-C10-C4=127.44              H18-C10-C4=117.71              H18-C10-S11=114.86             
 
 selected dihedral angles (degree)
 ---------------------------------
C3-C2-C1-H12=306.30           C3-C2-C1-H13= 66.43           C3-C2-C1-H14=186.31           C4-C3-C2-C1=189.74            
C5-C4-C3-C2=184.36            C10-C4-C3-C2=  4.38           N6-C5-C4-C3=  0.49            N6-C5-C4-C10=180.48           
C9-C5-C4-C3=180.49            C9-C5-C4-C10=  0.48           N7-N6-C5-C4=180.00            N7-N6-C5-C9=  0.00            
C8-N7-N6-C5=  0.00            H15-N7-N6-C5=179.94           C9-C8-N7-N6=359.97            C9-C8-N7-H15=180.06           
H16-C8-N7-N6=180.01           H16-C8-N7-H15=  0.10          C8-C9-C5-C4=179.99            C8-C9-C5-N6=  0.00            
H17-C9-C5-C4=  0.05           H17-C9-C5-N6=180.05           C5-C9-C8-N7=  0.00            C5-C9-C8-H16=179.98           
H17-C9-C8-N7=179.96           H17-C9-C8-H16=359.92          S11-C10-C4-C3=  0.00          S11-C10-C4-C5=180.00          
H18-C10-C4-C3=179.99          H18-C10-C4-C5=  0.00          
           -------------------------------------------------
          |                Final Singlepoint                |
           -------------------------------------------------

          ...................................................
          :                      SETUP                      :
          :.................................................:
          :  # basis functions                  57          :
          :  # atomic orbitals                  56          :
          :  # shells                           30          :
          :  # electrons                        56          :
          :  max. iterations                   250          :
          :  Hamiltonian                  GFN2-xTB          :
          :  restarted?                      false          :
          :  GBSA solvation                  false          :
          :  PC potential                    false          :
          :  electronic temp.          300.0000000     K    :
          :  accuracy                    1.0000000          :
          :  -> integral cutoff          0.2500000E+02      :
          :  -> integral neglect         0.1000000E-07      :
          :  -> SCF convergence          0.1000000E-05 Eh   :
          :  -> wf. convergence          0.1000000E-03 e    :
          :  Broyden damping             0.4000000          :
          ...................................................

 iter      E             dE          RMSdq      gap      omega  full diag
   1    -30.4159655 -0.304160E+02  0.446E-05    1.78       0.0  T
   2    -30.4159655 -0.501288E-11  0.308E-05    1.78     764.7  T
   3    -30.4159655 -0.786926E-11  0.184E-05    1.78    1282.4  T

   *** convergence criteria satisfied after 3 iterations ***

         #    Occupation            Energy/Eh            Energy/eV
      -------------------------------------------------------------
         1        2.0000           -0.5543933             -15.0858
       ...           ...                  ...                  ...
        22        2.0000           -0.2637134              -7.1760
        23        2.0000           -0.2541192              -6.9149
        24        2.0000           -0.2487309              -6.7683
        25        2.0000           -0.2336775              -6.3587
        26        2.0000           -0.2277330              -6.1969
        27        2.0000           -0.1592042              -4.3322
        28        2.0000           -0.1499672              -4.0808 (HOMO)
        29                         -0.0843721              -2.2959 (LUMO)
        30                         -0.0621228              -1.6904
        31                         -0.0065237              -0.1775
        32                          0.0136751               0.3721
        33                          0.0525247               1.4293
       ...                                ...                  ...
        56                          1.5859322              43.1554
      -------------------------------------------------------------
                  HL-Gap            0.0655951 Eh            1.7849 eV
             Fermi-level           -0.1171697 Eh           -3.1883 eV
 
 localization/xTB-IFF output generation
 averaging CT terms over            2  occ. levels
 averaging CT terms over            1  virt. levels
 dipole moment from electron density (au)
     X       Y       Z   
  -2.7230  -3.8708  -0.9679  total (Debye):   12.278
cpu  time for init local    0.00 s
wall time for init local    0.00 s
 doing rotations ...
 initialization of trafo matrix to unity
iteration     50  convergence  0.49947934D-03

 converged in     95 iterations, threshold :   0.99822536D-06
 doing transformations ...
 lmo centers(Z=2) and atoms on file <lmocent.coord>
 LMO Fii/eV  ncent    charge center   contributions...
    1 sigma -13.23   1.95  -3.61767  -2.27010  -0.59691    7N :  0.57    6N :  0.44
    2 sigma -12.91   1.92  -5.45562  -1.53266  -0.72114    7N :  0.59    8C :  0.42
    3 sigma -12.71   1.97  -5.18756  -3.53755  -0.89025    7N :  0.56   15H :  0.44
    4 sigma -11.35   2.01  -7.53958  -0.32953  -0.47822   16H :  0.51    8C :  0.49
    5 sigma -10.64   1.98   5.55117  -1.95667   0.08390    1C :  0.52    2C :  0.48
    6 sigma -10.63   2.00  -3.26669   1.13989   0.06657    9C :  0.52    5C :  0.48
    7 sigma -10.49   2.00   6.41971  -3.91513   0.60943    1C :  0.50   12H :  0.50
    8 sigma -10.47   2.00   6.98861  -2.91333  -1.29019    1C :  0.50   13H :  0.50
    9 sigma -10.41   2.00   7.67158  -2.08614   0.64674    1C :  0.51   14H :  0.50
   10 sigma -10.35   2.01  -4.79598   2.91052   0.27697   17H :  0.51    9C :  0.49
   11 sigma -10.25   2.03  -0.86587   1.02959   0.21549    5C :  0.52    4C :  0.47
   12 sigma -10.05   2.02   1.45568   0.82226   0.32676    3C :  0.52    4C :  0.48
   13 pi     -9.89   2.16  -5.18646   0.76378  -0.63785    9C :  0.49    8C :  0.47
   14 pi     -9.83   2.17  -5.23232   0.58764   0.36168    9C :  0.49    8C :  0.46
   15 pi     -9.78   2.10  -2.23149  -0.82437  -0.66852    6N :  0.56    5C :  0.41
   16 pi     -9.77   1.56  -4.78350  -2.05804  -0.37284    7N :  0.79    8C :  0.12
   17 pi     -9.75   2.11  -2.30022  -0.97829   0.23774    6N :  0.56    5C :  0.41
   18 sigma  -9.29   1.99  -0.60600   4.93119   0.94714   18H :  0.52   10C :  0.48
   19 delpi  -8.40   2.27   0.41632   2.45849   1.05255    4C :  0.53   10C :  0.39
   20 delpi  -8.39   2.28   0.47842   2.63413   0.10332    4C :  0.53   10C :  0.39
   21 pi     -8.37   2.02   3.14254  -1.04555   0.15476    2C :  0.50    3C :  0.49
   22 pi     -8.32   2.06   3.64410  -0.22895  -0.26546    2C :  0.51    3C :  0.48
   23 pi     -8.31   2.05   3.63731  -0.33656   0.74460    2C :  0.51    3C :  0.48
   24 LP     -7.86   1.02   2.58309   8.78987   1.86265   11S :  0.99
   25 LP     -7.76   1.02  -1.06591  -3.39654  -0.57353    6N :  0.99
   26 LP     -7.75   1.03   5.79641   4.18269   1.22380   11S :  0.99
   27 pi     -7.69   1.84   2.19083   5.04388   1.71274   11S :  0.66   10C :  0.33
   28 pi     -7.68   1.84   2.26519   5.24647   0.62272   11S :  0.66   10C :  0.33
 starting deloc pi regularization ...
 thr    2.20000000000000      # pi deloc LMO           6
 files:
 coordprot.0/xtbscreen.xyz/xtblmoinfo/lmocent.coord
 with protonation site input, xtbdock and
 LMO center info written
 

 SCC (total)                   0 d,  0 h,  0 min,  0.036 sec
 SCC setup                      ...        0 min,  0.000 sec (  0.424%)
 Dispersion                     ...        0 min,  0.000 sec (  0.316%)
 classical contributions        ...        0 min,  0.000 sec (  0.098%)
 integral evaluation            ...        0 min,  0.004 sec ( 12.024%)
 iterations                     ...        0 min,  0.004 sec ( 10.907%)
 molecular gradient             ...        0 min,  0.009 sec ( 26.143%)
 printout                       ...        0 min,  0.018 sec ( 49.955%)

         :::::::::::::::::::::::::::::::::::::::::::::::::::::
         ::                     SUMMARY                     ::
         :::::::::::::::::::::::::::::::::::::::::::::::::::::
         :: total energy             -29.923487058282 Eh    ::
         :: gradient norm              0.000903911901 Eh/a0 ::
         :: HOMO-LUMO gap              1.784934250238 eV    ::
         ::.................................................::
         :: SCC energy               -30.415965499687 Eh    ::
         :: -> isotropic ES            0.117115424645 Eh    ::
         :: -> anisotropic ES          0.012928377071 Eh    ::
         :: -> anisotropic XC          0.022216307090 Eh    ::
         :: -> dispersion             -0.017068503368 Eh    ::
         :: repulsion energy           0.492478940548 Eh    ::
         :: add. restraining           0.000000000000 Eh    ::
         :: total charge              -1.000000000000 e     ::
         :::::::::::::::::::::::::::::::::::::::::::::::::::::

           -------------------------------------------------
          |                Property Printout                |
           -------------------------------------------------

    * Orbital Energies and Occupations

         #    Occupation            Energy/Eh            Energy/eV
      -------------------------------------------------------------
         1        2.0000           -0.5543933             -15.0858
       ...           ...                  ...                  ...
        16        2.0000           -0.3523341              -9.5875
        17        2.0000           -0.3465046              -9.4289
        18        2.0000           -0.3251128              -8.8468
        19        2.0000           -0.2990180              -8.1367
        20        2.0000           -0.2963877              -8.0651
        21        2.0000           -0.2689322              -7.3180
        22        2.0000           -0.2637134              -7.1760
        23        2.0000           -0.2541192              -6.9149
        24        2.0000           -0.2487309              -6.7683
        25        2.0000           -0.2336775              -6.3587
        26        2.0000           -0.2277330              -6.1969
        27        2.0000           -0.1592042              -4.3322
        28        2.0000           -0.1499672              -4.0808 (HOMO)
        29                         -0.0843721              -2.2959 (LUMO)
        30                         -0.0621228              -1.6904
        31                         -0.0065237              -0.1775
        32                          0.0136751               0.3721
        33                          0.0525247               1.4293
        34                          0.0914550               2.4886
        35                          0.1349067               3.6710
        36                          0.2005343               5.4568
        37                          0.2055937               5.5945
        38                          0.2061982               5.6109
        39                          0.2102602               5.7215
       ...                                ...                  ...
        56                          1.5859322              43.1554
      -------------------------------------------------------------
                  HL-Gap            0.0655951 Eh            1.7849 eV
             Fermi-level           -0.1171697 Eh           -3.1883 eV

     #   Z          covCN         q      C6AA      α(0)
     1   6 C        3.752    -0.064    21.794     6.657
     2   6 C        1.960    -0.087    33.456     9.341
     3   6 C        1.984    -0.032    31.895     9.120
     4   6 C        2.987    -0.040    28.975     8.830
     5   6 C        3.132     0.070    26.238     8.386
     6   7 N        1.985    -0.280    28.072     7.858
     7   7 N        2.969    -0.030    21.813     6.937
     8   6 C        2.981    -0.014    28.363     8.736
     9   6 C        3.018    -0.083    30.055     8.993
    10   6 C        2.900     0.063    26.581     8.453
    11  16 S        1.018    -0.644   168.683    21.967
    12   1 H        0.924     0.016     2.797     2.615
    13   1 H        0.924     0.017     2.782     2.608
    14   1 H        0.924     0.026     2.649     2.545
    15   1 H        0.860     0.126     1.580     1.969
    16   1 H        0.926    -0.010     3.241     2.815
    17   1 H        0.926    -0.002     3.088     2.748
    18   1 H        0.925    -0.032     3.671     2.996

 Mol. C6AA /au·bohr⁶  :       5946.985253
 Mol. C8AA /au·bohr⁸  :     165444.623739
 Mol. α(0) /au        :        123.574265


Wiberg/Mayer (AO) data.
largest (>0.10) Wiberg bond orders for each atom

 ---------------------------------------------------------------------------
     #   Z sym  total        # sym  WBO       # sym  WBO       # sym  WBO
 ---------------------------------------------------------------------------
     1   6 C    3.998 --     2 C    1.054    12 H    0.973    14 H    0.972
                            13 H    0.972
     2   6 C    3.969 --     3 C    2.729     1 C    1.054
     3   6 C    3.977 --     2 C    2.729     4 C    1.124
     4   6 C    3.962 --    10 C    1.478     5 C    1.126     3 C    1.124
                            11 S    0.134
     5   6 C    3.970 --     6 N    1.423     9 C    1.248     4 C    1.126
     6   7 N    2.919 --     5 C    1.423     7 N    1.156     8 C    0.155
     7   7 N    3.554 --     8 C    1.242     6 N    1.156    15 H    0.955
                             9 C    0.100
     8   6 C    3.949 --     9 C    1.562     7 N    1.242    16 H    0.969
                             6 N    0.155
     9   6 C    3.973 --     8 C    1.562     5 C    1.248    17 H    0.972
                             7 N    0.100
    10   6 C    3.975 --     4 C    1.478    11 S    1.369    18 H    0.964
    11  16 S    1.677 --    10 C    1.369     4 C    0.134
    12   1 H    0.997 --     1 C    0.973
    13   1 H    0.994 --     1 C    0.972
    14   1 H    0.999 --     1 C    0.972
    15   1 H    0.984 --     7 N    0.955
    16   1 H    0.999 --     8 C    0.969
    17   1 H    1.000 --     9 C    0.972
    18   1 H    0.998 --    10 C    0.964
 ---------------------------------------------------------------------------

Topologies differ in total number of bonds
Writing topology from bond orders to xtbtopo.mol

molecular dipole:
                 x           y           z       tot (Debye)
 q only:       -1.973      -3.605      -0.867
   full:       -2.723      -3.871      -0.968      12.278
molecular quadrupole (traceless):
                xx          xy          yy          xz          yz          zz
 q only:        1.589     -14.608     -15.853      -3.801      -7.212      14.263
  q+dip:        7.564     -20.374     -18.455      -4.354      -7.502      10.892
   full:        6.290     -18.469     -19.625      -4.263      -8.047      13.336

           -------------------------------------------------
          |                Geometry Summary                 |
           -------------------------------------------------

      molecular mass/u    :      163.2196663
   center of mass at/Å    :        0.0916164       0.5318074       0.1474378
  moments of inertia/u·Å² :        0.3994589E+03   0.7874952E+03   0.1183776E+04
rotational constants/cm⁻¹ :        0.4220117E-01   0.2140665E-01   0.1424056E-01

 * 16 selected distances

     #   Z          #   Z                                           value/Å
     2   6 C        3   6 C                                       1.2037035
     4   6 C        5   6 C                                       1.4359611
     5   6 C        6   7 N                                       1.3359324
     6   7 N        7   7 N                                       1.3470604
     7   7 N        8   6 C                                       1.3539710
     5   6 C        9   6 C                                       1.4274025
     8   6 C        9   6 C                                       1.3652144
     4   6 C       10   6 C                                       1.3751696
    10   6 C       11  16 S                                       1.6804814 (max)
     1   6 C       12   1 H                                       1.0931876
     1   6 C       13   1 H                                       1.0935923
     1   6 C       14   1 H                                       1.0916763
     7   7 N       15   1 H                                       1.0058022 (min)
     8   6 C       16   1 H                                       1.0747449
     9   6 C       17   1 H                                       1.0713655
    10   6 C       18   1 H                                       1.0891557

 * 6 distinct bonds (by element types)

   Z      Z             #   av. dist./Å        max./Å        min./Å
   1 H    6 C           6     1.0856204     1.0935923     1.0713655
   6 C    6 C           5     1.3614902     1.4359611     1.2037035
   1 H    7 N           1     1.0058022     1.0058022     1.0058022
   6 C    7 N           2     1.3449517     1.3539710     1.3359324
   7 N    7 N           1     1.3470604     1.3470604     1.3470604
   6 C   16 S           1     1.6804814     1.6804814     1.6804814


optimized geometry written to: xtbopt.xyz


           -------------------------------------------------
          | TOTAL ENERGY              -29.923487058282 Eh   |
          | GRADIENT NORM               0.000903911901 Eh/α |
          | HOMO-LUMO GAP               1.784934250238 eV   |
           -------------------------------------------------

------------------------------------------------------------------------
 * finished run on 2022/11/02 at 18:13:36.604     
------------------------------------------------------------------------
 total:
 * wall-time:     0 d,  0 h,  0 min,  0.947 sec
 *  cpu-time:     0 d,  0 h,  0 min,  0.880 sec
 * ratio c/w:     0.929 speedup
 SCF:
 * wall-time:     0 d,  0 h,  0 min,  0.052 sec
 *  cpu-time:     0 d,  0 h,  0 min,  0.045 sec
 * ratio c/w:     0.866 speedup
 ANC optimizer:
 * wall-time:     0 d,  0 h,  0 min,  0.815 sec
 *  cpu-time:     0 d,  0 h,  0 min,  0.802 sec
 * ratio c/w:     0.984 speedup

