18
 energy: -29.923487058282 gnorm: 0.000903911901 xtb: 6.4.1 (afa7bdf)
C         3.52804079475133   -1.44089597064917    0.00642087468463
C         2.33464860867658   -0.61844487513324    0.08439079228039
C         1.32937232265159    0.04155002889591    0.13662407021673
C         0.18617050690144    0.86601595981068    0.21438989837511
C        -1.09102662489026    0.23992333301409    0.01751488017680
N        -1.21641382266175   -1.06861399320247   -0.22065226746176
N        -2.53742168906451   -1.29789454672332   -0.35080731701662
C        -3.26690105453065   -0.16693187542298   -0.20241380710299
C        -2.38321129426881    0.84606040252583    0.03580746872429
C         0.30445480998230    2.21228990647504    0.46864724468062
S         1.71907844047767    3.08409738339897    0.71926546983148
H         3.35530482284972   -2.41000751820078    0.48186191389059
H         3.81099632337070   -1.61149065311744   -1.03606540279051
H         4.35862821729094   -0.94627465753786    0.51360074729256
H        -2.86405206577947   -2.23064938693255   -0.53767371234102
H        -4.33898226615762   -0.17785687232070   -0.27724108788040
H        -2.61793594084690    1.87838683869219    0.20021734463646
H        -0.61075008875170    2.80073449642796    0.51756588980387
