      -----------------------------------------------------------      
     |                   =====================                   |     
     |                           x T B                           |     
     |                   =====================                   |     
     |                         S. Grimme                         |     
     |          Mulliken Center for Theoretical Chemistry        |     
     |                    University of Bonn                     |     
      -----------------------------------------------------------      

   * xtb version 6.4.1 (afa7bdf) compiled by 'ehlert@majestix' on 2021-06-10

   xtb is free software: you can redistribute it and/or modify it under
   the terms of the GNU Lesser General Public License as published by
   the Free Software Foundation, either version 3 of the License, or
   (at your option) any later version.
   
   xtb is distributed in the hope that it will be useful,
   but WITHOUT ANY WARRANTY; without even the implied warranty of
   MERCHANTABILITY or FITNESS FOR A PARTICULAR PURPOSE.  See the
   GNU Lesser General Public License for more details.
   
   Cite this work as:
   * C. Bannwarth, E. Caldeweyher, S. Ehlert, A. Hansen, P. Pracht,
     J. Seibert, S. Spicher, S. Grimme, WIREs Comput. Mol. Sci., 2020, 11,
     e01493. DOI: 10.1002/wcms.1493
   
   for GFN2-xTB:
   * C. Bannwarth, S. Ehlert and S. Grimme., J. Chem. Theory Comput., 2019,
     15, 1652-1671. DOI: 10.1021/acs.jctc.8b01176
   for GFN1-xTB:
   * S. Grimme, C. Bannwarth, P. Shushkov, J. Chem. Theory Comput., 2017,
     13, 1989-2009. DOI: 10.1021/acs.jctc.7b00118
   for GFN0-xTB:
   * P. Pracht, E. Caldeweyher, S. Ehlert, S. Grimme, ChemRxiv, 2019, preprint.
     DOI: 10.26434/chemrxiv.8326202.v1
   for GFN-FF:
   * S. Spicher and S. Grimme, Angew. Chem. Int. Ed., 2020, 59, 15665-15673.
     DOI: 10.1002/anie.202004239
   
   for DFT-D4:
   * E. Caldeweyher, C. Bannwarth and S. Grimme, J. Chem. Phys., 2017,
     147, 034112. DOI: 10.1063/1.4993215
   * E. Caldeweyher, S. Ehlert, A. Hansen, H. Neugebauer, S. Spicher,
     C. Bannwarth and S. Grimme, J. Chem. Phys., 2019, 150, 154122.
     DOI: 10.1063/1.5090222
   * E. Caldeweyher, J.-M. Mewes, S. Ehlert and S. Grimme, Phys. Chem. Chem. Phys.
     2020, 22, 8499-8512. DOI: 10.1039/D0CP00502A
   
   for sTDA-xTB:
   * S. Grimme and C. Bannwarth, J. Chem. Phys., 2016, 145, 054103.
     DOI: 10.1063/1.4959605
   
   in the mass-spec context:
   * V. Asgeirsson, C. Bauer and S. Grimme, Chem. Sci., 2017, 8, 4879.
     DOI: 10.1039/c7sc00601b
   * J. Koopman and S. Grimme, ACS Omega 2019, 4, 12, 15120-15133.
     DOI: 10.1021/acsomega.9b02011
   
   for metadynamics refer to:
   * S. Grimme, J. Chem. Theory Comput., 2019, 155, 2847-2862
     DOI: 10.1021/acs.jctc.9b00143
   
   for SPH calculations refer to:
   * S. Spicher and S. Grimme, J. Chem. Theory Comput., 2021, 17, 1701-1714
     DOI: 10.1021/acs.jctc.0c01306
   
   with help from (in alphabetical order)
   P. Atkinson, C. Bannwarth, F. Bohle, G. Brandenburg, E. Caldeweyher
   M. Checinski, S. Dohm, S. Ehlert, S. Ehrlich, I. Gerasimov, J. Koopman
   C. Lavigne, S. Lehtola, F. März, M. Müller, F. Musil, H. Neugebauer
   J. Pisarek, C. Plett, P. Pracht, J. Seibert, P. Shushkov, S. Spicher
   M. Stahn, M. Steiner, T. Strunk, J. Stückrath, T. Rose, and J. Unsleber
   
 * started run on 2022/11/04 at 10:55:57.782     

           -------------------------------------------------
          |                Calculation Setup                |
           -------------------------------------------------

          program call               : /lustre/hpc/kemi/borup/pKalculator/dep/xtb-6.4.1/bin/xtb --gfn 2 /lustre/hpc/kemi/borup/pKalculator/calc/furan/conf01/furan_conf01_gfn2.xyz --opt --lmo --chrg 0 --uhf 0 --alpb DMSO
          hostname                   : fend01.cluster
          coordinate file            : /lustre/hpc/kemi/borup/pKalculator/calc/furan/conf01/furan_conf01_gfn2.xyz
          omp threads                :                     1
          number of atoms            :                     9
          number of electrons        :                    26
          charge                     :                     0
          spin                       :                   0.0
          first test random number   :      0.28643031574161

   ID    Z sym.   atoms
    1    8 O      1
    2    6 C      2-5
    3    1 H      6-9

           -------------------------------------------------
          |                 G F N 2 - x T B                 |
           -------------------------------------------------

        Reference                      10.1021/acs.jctc.8b01176
      * Hamiltonian:
        H0-scaling (s, p, d)           1.850000    2.230000    2.230000
        zeta-weighting                 0.500000
      * Dispersion:
        s8                             2.700000
        a1                             0.520000
        a2                             5.000000
        s9                             5.000000
      * Repulsion:
        kExp                           1.500000    1.000000
        rExp                           1.000000
      * Coulomb:
        alpha                          2.000000
        third order                    shell-resolved
        anisotropic                    true
        a3                             3.000000
        a5                             4.000000
        cn-shift                       1.200000
        cn-exp                         4.000000
        max-rad                        5.000000

      * Solvation model:               ALPB
        Solvent                        DMSO
        Parameter file                 internal GFN2-xTB/ALPB
        Dielectric constant                4.6680E+01
        Reference state                gsolv [1 M gas/solution]
        Free energy shift                  7.1947E-03 Eh       4.5147E+00 kcal/mol
        Temperature                        2.9815E+02 K
        Density                            1.1000E+00 kg/L
        Solvent mass                       7.8130E+01 g/mol
        Interaction kernel             P16
        Born radius scaling (c1)           1.7927E+00
        Born radii integrator          GBOBC
        Born offset                        0.0000E+00 a0       0.0000E+00 AA
        H-bond correction              true
        Ion screening                  false
        Surface tension                    1.0000E-05 Eh       1.5569E+01 dyn/cm
        Grid points                               230 per atom

          ...................................................
          :                      SETUP                      :
          :.................................................:
          :  # basis functions                  24          :
          :  # atomic orbitals                  24          :
          :  # shells                           14          :
          :  # electrons                        26          :
          :  max. iterations                   250          :
          :  Hamiltonian                  GFN2-xTB          :
          :  restarted?                      false          :
          :  GBSA solvation                   true          :
          :  PC potential                    false          :
          :  electronic temp.          300.0000000     K    :
          :  accuracy                    1.0000000          :
          :  -> integral cutoff          0.2500000E+02      :
          :  -> integral neglect         0.1000000E-07      :
          :  -> SCF convergence          0.1000000E-05 Eh   :
          :  -> wf. convergence          0.1000000E-03 e    :
          :  Broyden damping             0.4000000          :
          ...................................................

 iter      E             dE          RMSdq      gap      omega  full diag
   1    -14.8416717 -0.148417E+02  0.423E+00    4.67       0.0  T
   2    -14.8452433 -0.357164E-02  0.262E+00    4.66       1.0  T
   3    -14.8404382  0.480508E-02  0.919E-01    4.65       1.0  T
   4    -14.8466293 -0.619107E-02  0.148E-01    4.62       1.0  T
   5    -14.8466647 -0.354220E-04  0.541E-02    4.62       1.0  T
   6    -14.8466675 -0.281307E-05  0.160E-02    4.62       2.1  T
   7    -14.8466677 -0.134315E-06  0.403E-03    4.62       8.3  T
   8    -14.8466677 -0.790440E-07  0.159E-03    4.62      20.9  T
   9    -14.8466677 -0.319230E-08  0.954E-04    4.62      35.0  T
  10    -14.8466677 -0.267849E-08  0.141E-04    4.62     236.2  T

   *** convergence criteria satisfied after 10 iterations ***

         #    Occupation            Energy/Eh            Energy/eV
      -------------------------------------------------------------
         1        2.0000           -0.7307039             -19.8835
       ...           ...                  ...                  ...
         7        2.0000           -0.5526183             -15.0375
         8        2.0000           -0.4983153             -13.5598
         9        2.0000           -0.4761443             -12.9565
        10        2.0000           -0.4605452             -12.5321
        11        2.0000           -0.4558163             -12.4034
        12        2.0000           -0.4247968             -11.5593
        13        2.0000           -0.3870866             -10.5332 (HOMO)
        14                         -0.2173453              -5.9143 (LUMO)
        15                         -0.1555317              -4.2322
        16                          0.0480100               1.3064
        17                          0.1101329               2.9969
        18                          0.1550088               4.2180
       ...                                ...                  ...
        24                          0.6773610              18.4319
      -------------------------------------------------------------
                  HL-Gap            0.1697413 Eh            4.6189 eV
             Fermi-level           -0.3022160 Eh           -8.2237 eV
 
 localization/xTB-IFF output generation
 averaging CT terms over            1  occ. levels
 averaging CT terms over            1  virt. levels
 dipole moment from electron density (au)
     X       Y       Z   
   0.0015   0.2260   0.0469  total (Debye):    0.587
cpu  time for init local    0.00 s
wall time for init local    0.00 s
 doing rotations ...
 initialization of trafo matrix to unity

 converged in     21 iterations, threshold :   0.90685998D-06
 doing transformations ...
 lmo centers(Z=2) and atoms on file <lmocent.coord>
 LMO Fii/eV  ncent    charge center   contributions...
    1 sigma -17.66   1.86  -0.84615  -2.09528  -0.36573    1O :  0.63    5C :  0.37
    2 sigma -17.66   1.86   0.84534  -2.05447  -0.61210    1O :  0.63    2C :  0.37
    3 LP    -16.12   1.01   0.00605  -4.41815  -0.83291    1O :  1.00
    4 sigma -14.72   1.99   0.00806   1.42664   0.16288    4C :  0.50    3C :  0.50
    5 pi    -14.54   1.42  -0.04591  -2.29167  -0.83428    1O :  0.83    5C :  0.07    2C :  0.07
    6 sigma -14.32   2.00   3.26704  -1.49674  -0.94010    2C :  0.52    6H :  0.48
    7 sigma -14.31   2.00  -3.28386  -1.65973   0.01197    5C :  0.52    9H :  0.48
    8 sigma -13.84   2.01  -2.07864   2.31019   0.65758    4C :  0.51    8H :  0.48
    9 sigma -13.84   2.01   2.10489   2.41164   0.05108    3C :  0.51    7H :  0.48
   10 pi    -13.39   2.13  -1.51369  -0.01905   0.61244    5C :  0.48    4C :  0.48
   11 pi    -13.38   2.13   1.66282   0.05761   0.15064    2C :  0.48    3C :  0.48
   12 pi    -13.37   2.14   1.50622   0.26629  -0.83636    3C :  0.48    2C :  0.48
   13 pi    -13.36   2.14  -1.65456   0.18960  -0.37709    4C :  0.48    5C :  0.48
 starting deloc pi regularization ...
 thr    2.20000000000000      # pi deloc LMO           3
 files:
 coordprot.0/xtbscreen.xyz/xtblmoinfo/lmocent.coord
 with protonation site input, xtbdock and
 LMO center info written
 

 SCC (total)                   0 d,  0 h,  0 min,  0.022 sec
 SCC setup                      ...        0 min,  0.001 sec (  2.683%)
 Dispersion                     ...        0 min,  0.000 sec (  0.508%)
 classical contributions        ...        0 min,  0.000 sec (  0.213%)
 integral evaluation            ...        0 min,  0.001 sec (  5.505%)
 iterations                     ...        0 min,  0.003 sec ( 15.414%)
 molecular gradient             ...        0 min,  0.002 sec ( 10.431%)
 printout                       ...        0 min,  0.014 sec ( 65.005%)

         :::::::::::::::::::::::::::::::::::::::::::::::::::::
         ::                     SUMMARY                     ::
         :::::::::::::::::::::::::::::::::::::::::::::::::::::
         :: total energy             -14.646684210268 Eh    ::
         :: total w/o Gsasa/hb       -14.640867184206 Eh    ::
         :: gradient norm              0.042402922703 Eh/a0 ::
         :: HOMO-LUMO gap              4.618896218752 eV    ::
         ::.................................................::
         :: SCC energy               -14.846667745067 Eh    ::
         :: -> isotropic ES            0.008323992638 Eh    ::
         :: -> anisotropic ES          0.002384118369 Eh    ::
         :: -> anisotropic XC          0.005870222270 Eh    ::
         :: -> dispersion             -0.004708244294 Eh    ::
         :: -> Gsolv                  -0.006203594690 Eh    ::
         ::    -> Gelec               -0.000386568629 Eh    ::
         ::    -> Gsasa               -0.012577183074 Eh    ::
         ::    -> Ghb                 -0.000434537036 Eh    ::
         ::    -> Gshift               0.007194694049 Eh    ::
         :: repulsion energy           0.199982465362 Eh    ::
         :: add. restraining           0.000000000000 Eh    ::
         :: total charge              -0.000000000000 e     ::
         :::::::::::::::::::::::::::::::::::::::::::::::::::::

      ----------------------------------------------------------- 
     |                   =====================                   |
     |                        A N C O P T                        |
     |                   =====================                   |
     |               Approximate Normal Coordinate               |
     |                Rational Function Optimizer                |
      ----------------------------------------------------------- 

          ...................................................
          :                      SETUP                      :
          :.................................................:
          :   optimization level            normal          :
          :   max. optcycles                   200          :
          :   ANC micro-cycles                  20          :
          :   degrees of freedom                21          :
          :.................................................:
          :   RF solver                   davidson          :
          :   write xtbopt.log                true          :
          :   linear?                        false          :
          :   energy convergence         0.5000000E-05 Eh   :
          :   grad. convergence          0.1000000E-02 Eh/α :
          :   maximium RF displ.         1.0000000          :
          :   Hlow (freq-cutoff)         0.1000000E-01      :
          :   Hmax (freq-cutoff)         5.0000000          :
          :   S6 in model hess.         20.0000000          :
          ...................................................

generating ANC from model Hessian ...
Using Lindh-Hessian (1995)
 Shifting diagonal of input Hessian by   0.000000000000000E+000
 Lowest  eigenvalues of input Hessian
    0.000000    0.000000    0.000000    0.000000    0.000000    0.000000
    0.018528    0.024866    0.064117    0.084044    0.099341    0.104946
    0.113899    0.146581    0.184555    0.190034    0.223706    0.374168
 Highest eigenvalues
    1.047217    1.452210    1.744556    1.781038    1.885752    1.950218
 

........................................................................
.............................. CYCLE    1 ..............................
........................................................................
   1    -14.8466677 -0.148467E+02  0.732E-05    4.62       0.0  T
   2    -14.8466677 -0.658851E-11  0.403E-05    4.62     826.8  T
   3    -14.8466677 -0.399680E-12  0.280E-05    4.62    1189.3  T
     SCC iter.                  ...        0 min,  0.001 sec
     gradient                   ...        0 min,  0.002 sec
 * total energy  :   -14.6466842 Eh     change       -0.2991385E-10 Eh
   gradient norm :     0.0424028 Eh/α   predicted     0.0000000E+00 (-100.00%)
   displ. norm   :     0.1591756 α      lambda       -0.4464930E-02
   maximum displ.:     0.1430159 α      in ANC's #7, #12, #11, ...

........................................................................
.............................. CYCLE    2 ..............................
........................................................................
   1    -14.8581172 -0.148581E+02  0.301E-01    4.84       0.0  T
   2    -14.8581884 -0.711856E-04  0.207E-01    4.83       1.0  T
   3    -14.8581913 -0.287686E-05  0.103E-01    4.83       1.0  T
   4    -14.8582226 -0.313319E-04  0.837E-03    4.82       4.0  T
   5    -14.8582229 -0.212432E-06  0.289E-03    4.82      11.5  T
   6    -14.8582229 -0.728406E-08  0.816E-04    4.82      40.9  T
   7    -14.8582229  0.422910E-09  0.449E-04    4.82      74.2  T
     SCC iter.                  ...        0 min,  0.002 sec
     gradient                   ...        0 min,  0.002 sec
 * total energy  :   -14.6498959 Eh     change       -0.3211683E-02 Eh
   gradient norm :     0.0173404 Eh/α   predicted    -0.2289026E-02 ( -28.73%)
   displ. norm   :     0.1516529 α      lambda       -0.1796869E-02
   maximum displ.:     0.1352972 α      in ANC's #7, #5, #12, ...

........................................................................
.............................. CYCLE    3 ..............................
........................................................................
   1    -14.8632627 -0.148633E+02  0.299E-01    4.97       0.0  T
   2    -14.8632918 -0.291002E-04  0.192E-01    4.96       1.0  T
   3    -14.8632630  0.287542E-04  0.833E-02    4.96       1.0  T
   4    -14.8633047 -0.417297E-04  0.590E-03    4.95       5.7  T
   5    -14.8633048 -0.102877E-06  0.211E-03    4.95      15.8  T
   6    -14.8633049 -0.405159E-08  0.522E-04    4.95      63.9  T
   7    -14.8633049  0.134653E-09  0.239E-04    4.95     139.2  T
     SCC iter.                  ...        0 min,  0.002 sec
     gradient                   ...        0 min,  0.002 sec
 * total energy  :   -14.6508834 Eh     change       -0.9875103E-03 Eh
   gradient norm :     0.0084787 Eh/α   predicted    -0.9191017E-03 (  -6.93%)
   displ. norm   :     0.0284716 α      lambda       -0.9146708E-04
   maximum displ.:     0.0195661 α      in ANC's #5, #7, #17, ...

........................................................................
.............................. CYCLE    4 ..............................
........................................................................
   1    -14.8630106 -0.148630E+02  0.608E-02    4.95       0.0  T
   2    -14.8630116 -0.998885E-06  0.348E-02    4.95       1.0  T
   3    -14.8630107  0.878458E-06  0.151E-02    4.95       2.2  T
   4    -14.8630119 -0.120970E-05  0.148E-03    4.95      22.5  T
   5    -14.8630119 -0.419726E-08  0.393E-04    4.95      84.8  T
   6    -14.8630119 -0.538591E-10  0.106E-04    4.95     313.7  T
     SCC iter.                  ...        0 min,  0.002 sec
     gradient                   ...        0 min,  0.002 sec
 * total energy  :   -14.6509488 Eh     change       -0.6539798E-04 Eh
   gradient norm :     0.0052667 Eh/α   predicted    -0.4577115E-04 ( -30.01%)
   displ. norm   :     0.0194258 α      lambda       -0.4567086E-04
   maximum displ.:     0.0167760 α      in ANC's #5, #7, #17, ...

........................................................................
.............................. CYCLE    5 ..............................
........................................................................
   1    -14.8627303 -0.148627E+02  0.440E-02    4.93       0.0  T
   2    -14.8627333 -0.300477E-05  0.267E-02    4.93       1.2  T
   3    -14.8627339 -0.557006E-06  0.142E-02    4.93       2.3  T
   4    -14.8627343 -0.431404E-06  0.339E-03    4.93       9.8  T
   5    -14.8627343 -0.191009E-07  0.481E-04    4.93      69.2  T
   6    -14.8627343 -0.197065E-09  0.126E-04    4.93     264.5  T
     SCC iter.                  ...        0 min,  0.002 sec
     gradient                   ...        0 min,  0.002 sec
 * total energy  :   -14.6509736 Eh     change       -0.2475659E-04 Eh
   gradient norm :     0.0007053 Eh/α   predicted    -0.2284399E-04 (  -7.73%)
   displ. norm   :     0.0051654 α      lambda       -0.1374026E-05
   maximum displ.:     0.0034083 α      in ANC's #7, #5, #3, ...

........................................................................
.............................. CYCLE    6 ..............................
........................................................................
   1    -14.8627954 -0.148628E+02  0.850E-03    4.93       0.0  T
   2    -14.8627956 -0.190073E-06  0.644E-03    4.93       5.2  T
   3    -14.8627957 -0.470520E-07  0.335E-03    4.93      10.0  T
   4    -14.8627957 -0.209242E-08  0.120E-03    4.93      27.8  T
   5    -14.8627957 -0.363834E-08  0.142E-04    4.93     234.5  T
   6    -14.8627957 -0.192273E-10  0.418E-05    4.93     798.4  T
     SCC iter.                  ...        0 min,  0.002 sec
     gradient                   ...        0 min,  0.002 sec
 * total energy  :   -14.6509741 Eh     change       -0.5104528E-06 Eh
   gradient norm :     0.0005216 Eh/α   predicted    -0.6871597E-06 (  34.62%)
   displ. norm   :     0.0030033 α      lambda       -0.4958146E-06
   maximum displ.:     0.0020381 α      in ANC's #3, #2, #8, ...

   *** GEOMETRY OPTIMIZATION CONVERGED AFTER 6 ITERATIONS ***

------------------------------------------------------------------------
 total energy gain   :        -0.0042899 Eh       -2.6919 kcal/mol
 total RMSD          :         0.1136553 a0        0.0601 Å
 total power (kW/mol):        -1.8771703 (step) -312.4705 (real)
------------------------------------------------------------------------

 ANCopt (total)                0 d,  0 h,  0 min,  0.036 sec
 optimizer setup                ...        0 min,  0.000 sec (  1.364%)
 model hessian                  ...        0 min,  0.001 sec (  2.465%)
 ANC generation                 ...        0 min,  0.000 sec (  0.851%)
 coordinate transformation      ...        0 min,  0.000 sec (  0.198%)
 single point calculation       ...        0 min,  0.032 sec ( 87.541%)
 optimization log               ...        0 min,  0.002 sec (  4.573%)
 hessian update                 ...        0 min,  0.000 sec (  0.194%)
 rational function              ...        0 min,  0.001 sec (  1.389%)

================
 final structure:
================
9
 xtb: 6.4.1 (afa7bdf)
O        -0.00718659044997   -1.34851036626698   -0.35173692942520
C         1.06659210838356   -0.53841170591275   -0.34503715822193
C         0.70528339741234    0.73304397789232   -0.02540239349425
C        -0.69747322147279    0.69826881576931    0.17829940420209
C        -1.07261421407754   -0.59141876001503   -0.03428998640726
H         2.01488931543080   -0.97897192622552   -0.58014023506286
H         1.34781101533355    1.58551415546349    0.05658425005080
H        -1.33099881846831    1.51912079743361    0.44470860685276
H        -2.02630399209165   -1.07863398813846    0.00723044150587
 
 Bond Distances (Angstroems)
 ---------------------------
O1-C2=1.3451         O1-C5=1.3450         C2-O1=1.3451         C2-C3=1.3599         C2-H6=1.0717         C3-C2=1.3599         
C3-C4=1.4179         C3-H7=1.0706         C4-C3=1.4179         C4-C5=1.3599         C4-H8=1.0706         C5-O1=1.3450         
C5-C4=1.3599         C5-H9=1.0717         H6-C2=1.0717         H7-C3=1.0706         H8-C4=1.0706         H9-C5=1.0717         
 C  H  Rav=1.0712 sigma=0.0006  Rmin=1.0706  Rmax=1.0717     4
 C  C  Rav=1.3792 sigma=0.0274  Rmin=1.3599  Rmax=1.4179     3
 O  C  Rav=1.3451 sigma=0.0000  Rmin=1.3450  Rmax=1.3451     2
 
 selected bond angles (degree)
 --------------------
C5-O1-C2=106.99                C3-C2-O1=110.62                H6-C2-O1=117.24                H6-C2-C3=132.14                
C4-C3-C2=105.88                H7-C3-C2=127.08                H7-C3-C4=127.03                C5-C4-C3=105.89                
H8-C4-C3=127.04                H8-C4-C5=127.07                C4-C5-O1=110.62                H9-C5-O1=117.27                
H9-C5-C4=132.11                
 
 selected dihedral angles (degree)
 ---------------------------------
C3-C2-O1-C5=  0.06            H6-C2-O1-C5=180.06            C4-C3-C2-O1=359.96            C4-C3-C2-H6=179.96            
H7-C3-C2-O1=179.91            H7-C3-C2-H6=359.91            C5-C4-C3-C2=  0.00            C5-C4-C3-H7=180.05            
H8-C4-C3-C2=180.01            H8-C4-C3-H7=  0.06            C4-C5-O1-C2=359.95            H9-C5-O1-C2=179.96            
O1-C5-C4-C3=  0.03            O1-C5-C4-H8=180.03            H9-C5-C4-C3=180.02            H9-C5-C4-H8=  0.00            
           -------------------------------------------------
          |                Final Singlepoint                |
           -------------------------------------------------

          ...................................................
          :                      SETUP                      :
          :.................................................:
          :  # basis functions                  24          :
          :  # atomic orbitals                  24          :
          :  # shells                           14          :
          :  # electrons                        26          :
          :  max. iterations                   250          :
          :  Hamiltonian                  GFN2-xTB          :
          :  restarted?                      false          :
          :  GBSA solvation                   true          :
          :  PC potential                    false          :
          :  electronic temp.          300.0000000     K    :
          :  accuracy                    1.0000000          :
          :  -> integral cutoff          0.2500000E+02      :
          :  -> integral neglect         0.1000000E-07      :
          :  -> SCF convergence          0.1000000E-05 Eh   :
          :  -> wf. convergence          0.1000000E-03 e    :
          :  Broyden damping             0.4000000          :
          ...................................................

 iter      E             dE          RMSdq      gap      omega  full diag
   1    -14.8627957 -0.148628E+02  0.169E-05    4.93       0.0  T
   2    -14.8627957 -0.120792E-12  0.936E-06    4.93    3560.3  T
   3    -14.8627957 -0.532907E-14  0.648E-06    4.93    5142.0  T

   *** convergence criteria satisfied after 3 iterations ***

         #    Occupation            Energy/Eh            Energy/eV
      -------------------------------------------------------------
         1        2.0000           -0.7357172             -20.0199
       ...           ...                  ...                  ...
         7        2.0000           -0.5542481             -15.0819
         8        2.0000           -0.4958992             -13.4941
         9        2.0000           -0.4744621             -12.9108
        10        2.0000           -0.4637792             -12.6201
        11        2.0000           -0.4580634             -12.4645
        12        2.0000           -0.4221628             -11.4876
        13        2.0000           -0.3900849             -10.6148 (HOMO)
        14                         -0.2089821              -5.6867 (LUMO)
        15                         -0.1565757              -4.2606
        16                          0.0998266               2.7164
        17                          0.1221766               3.3246
        18                          0.1593183               4.3353
       ...                                ...                  ...
        24                          0.7112416              19.3539
      -------------------------------------------------------------
                  HL-Gap            0.1811028 Eh            4.9281 eV
             Fermi-level           -0.2995335 Eh           -8.1507 eV
 
 localization/xTB-IFF output generation
 averaging CT terms over            1  occ. levels
 averaging CT terms over            1  virt. levels
 dipole moment from electron density (au)
     X       Y       Z   
   0.0008   0.1752   0.0361  total (Debye):    0.455
cpu  time for init local    0.00 s
wall time for init local    0.00 s
 doing rotations ...
 initialization of trafo matrix to unity

 converged in     16 iterations, threshold :   0.99797211D-06
 doing transformations ...
 lmo centers(Z=2) and atoms on file <lmocent.coord>
 LMO Fii/eV  ncent    charge center   contributions...
    1 sigma -17.74   1.85   0.81051  -1.93641  -0.74910    1O :  0.64    2C :  0.37
    2 sigma -17.74   1.85  -0.85633  -1.97777  -0.50692    1O :  0.64    5C :  0.37
    3 LP    -16.19   1.01  -0.05500  -4.24166  -1.23877    1O :  1.00
    4 pi    -14.68   1.43   0.02193  -2.29111  -0.37623    1O :  0.83    5C :  0.07    2C :  0.07
    5 sigma -14.65   2.00   0.00760   1.46178   0.16460    4C :  0.50    3C :  0.50
    6 sigma -14.35   2.00   3.19256  -1.55360  -0.94191    2C :  0.52    6H :  0.48
    7 sigma -14.35   2.00  -3.21052  -1.71179  -0.01144    5C :  0.52    9H :  0.48
    8 sigma -13.84   2.00   2.12594   2.44630   0.05472    3C :  0.52    7H :  0.48
    9 sigma -13.84   2.01  -2.10001   2.34160   0.66749    4C :  0.52    8H :  0.48
   10 pi    -13.44   2.12   1.53577   0.31660  -0.83195    3C :  0.49    2C :  0.49
   11 pi    -13.44   2.12  -1.68333   0.23672  -0.36436    4C :  0.49    5C :  0.49
   12 pi    -13.41   2.12   1.67819   0.11026   0.16915    3C :  0.49    2C :  0.48
   13 pi    -13.41   2.13  -1.52505   0.03107   0.63445    4C :  0.49    5C :  0.48
 starting deloc pi regularization ...
 thr    2.20000000000000      # pi deloc LMO           3
 files:
 coordprot.0/xtbscreen.xyz/xtblmoinfo/lmocent.coord
 with protonation site input, xtbdock and
 LMO center info written
 

 SCC (total)                   0 d,  0 h,  0 min,  0.012 sec
 SCC setup                      ...        0 min,  0.000 sec (  2.457%)
 Dispersion                     ...        0 min,  0.000 sec (  0.336%)
 classical contributions        ...        0 min,  0.000 sec (  0.131%)
 integral evaluation            ...        0 min,  0.001 sec (  8.667%)
 iterations                     ...        0 min,  0.001 sec (  9.192%)
 molecular gradient             ...        0 min,  0.002 sec ( 17.022%)
 printout                       ...        0 min,  0.008 sec ( 61.830%)

         :::::::::::::::::::::::::::::::::::::::::::::::::::::
         ::                     SUMMARY                     ::
         :::::::::::::::::::::::::::::::::::::::::::::::::::::
         :: total energy             -14.650974068722 Eh    ::
         :: total w/o Gsasa/hb       -14.645258893944 Eh    ::
         :: gradient norm              0.000529023128 Eh/a0 ::
         :: HOMO-LUMO gap              4.928059072830 eV    ::
         ::.................................................::
         :: SCC energy               -14.862795656488 Eh    ::
         :: -> isotropic ES            0.008345090883 Eh    ::
         :: -> anisotropic ES          0.001578956321 Eh    ::
         :: -> anisotropic XC          0.005751397017 Eh    ::
         :: -> dispersion             -0.004714552793 Eh    ::
         :: -> Gsolv                  -0.006055684508 Eh    ::
         ::    -> Gelec               -0.000340509731 Eh    ::
         ::    -> Gsasa               -0.012474550443 Eh    ::
         ::    -> Ghb                 -0.000435318383 Eh    ::
         ::    -> Gshift               0.007194694049 Eh    ::
         :: repulsion energy           0.211820521963 Eh    ::
         :: add. restraining           0.000000000000 Eh    ::
         :: total charge              -0.000000000000 e     ::
         :::::::::::::::::::::::::::::::::::::::::::::::::::::

           -------------------------------------------------
          |                Property Printout                |
           -------------------------------------------------

    * Orbital Energies and Occupations

         #    Occupation            Energy/Eh            Energy/eV
      -------------------------------------------------------------
         1        2.0000           -0.7357172             -20.0199
         2        2.0000           -0.6581241             -17.9085
         3        2.0000           -0.6524436             -17.7539
         4        2.0000           -0.5846764             -15.9099
         5        2.0000           -0.5708505             -15.5336
         6        2.0000           -0.5616399             -15.2830
         7        2.0000           -0.5542481             -15.0819
         8        2.0000           -0.4958992             -13.4941
         9        2.0000           -0.4744621             -12.9108
        10        2.0000           -0.4637792             -12.6201
        11        2.0000           -0.4580634             -12.4645
        12        2.0000           -0.4221628             -11.4876
        13        2.0000           -0.3900849             -10.6148 (HOMO)
        14                         -0.2089821              -5.6867 (LUMO)
        15                         -0.1565757              -4.2606
        16                          0.0998266               2.7164
        17                          0.1221766               3.3246
        18                          0.1593183               4.3353
        19                          0.1690485               4.6000
        20                          0.2646109               7.2004
        21                          0.2770513               7.5389
        22                          0.4363346              11.8733
        23                          0.5126814              13.9508
        24                          0.7112416              19.3539
      -------------------------------------------------------------
                  HL-Gap            0.1811028 Eh            4.9281 eV
             Fermi-level           -0.2995335 Eh           -8.1507 eV

     #   Z          covCN         q      C6AA      α(0)
     1   8 O        1.730    -0.185    17.091     5.582
     2   6 C        3.074     0.061    26.567     8.451
     3   6 C        3.021    -0.067    29.632     8.929
     4   6 C        3.021    -0.067    29.633     8.929
     5   6 C        3.074     0.061    26.567     8.451
     6   1 H        0.926     0.054     2.268     2.355
     7   1 H        0.926     0.044     2.392     2.419
     8   1 H        0.926     0.044     2.393     2.419
     9   1 H        0.926     0.054     2.267     2.355

 Mol. C6AA /au·bohr⁶  :        984.422296
 Mol. C8AA /au·bohr⁸  :      23569.554074
 Mol. α(0) /au        :         49.889923


Wiberg/Mayer (AO) data.
largest (>0.10) Wiberg bond orders for each atom

 ---------------------------------------------------------------------------
     #   Z sym  total        # sym  WBO       # sym  WBO       # sym  WBO
 ---------------------------------------------------------------------------
     1   8 O    2.446 --     5 C    1.136     2 C    1.136
     2   6 C    3.906 --     3 C    1.615     1 O    1.136     6 H    0.967
                             5 C    0.152
     3   6 C    3.984 --     2 C    1.615     4 C    1.289     7 H    0.975
     4   6 C    3.984 --     5 C    1.615     3 C    1.289     8 H    0.975
     5   6 C    3.906 --     4 C    1.615     1 O    1.136     9 H    0.967
                             2 C    0.152
     6   1 H    0.997 --     2 C    0.967
     7   1 H    0.998 --     3 C    0.975
     8   1 H    0.998 --     4 C    0.975
     9   1 H    0.997 --     5 C    0.967
 ---------------------------------------------------------------------------

Topologies differ in total number of bonds
Writing topology from bond orders to xtbtopo.mol

molecular dipole:
                 x           y           z       tot (Debye)
 q only:        0.001       0.211       0.043
   full:        0.001       0.175       0.036       0.455
molecular quadrupole (traceless):
                xx          xy          yy          xz          yz          zz
 q only:        2.459       0.089      -1.354      -0.525      -0.097      -1.104
  q+dip:        2.849       0.154      -0.258      -0.818       0.476      -2.590
   full:        2.700       0.108      -1.212      -0.621       0.028      -1.488

           -------------------------------------------------
          |                Geometry Summary                 |
           -------------------------------------------------

      molecular mass/u    :       68.0741115
   center of mass at/Å    :       -0.0012937      -0.2482441      -0.1236793
  moments of inertia/u·Å² :        0.5225592E+02   0.5409593E+02   0.1063518E+03
rotational constants/cm⁻¹ :        0.3225976E+00   0.3116248E+00   0.1585081E+00

 * 9 selected distances

     #   Z          #   Z                                           value/Å
     1   8 O        2   6 C                                       1.3451042
     2   6 C        3   6 C                                       1.3598933
     3   6 C        4   6 C                                       1.4178963 (max)
     1   8 O        5   6 C                                       1.3450265
     4   6 C        5   6 C                                       1.3598599
     2   6 C        6   1 H                                       1.0717436
     3   6 C        7   1 H                                       1.0706395
     4   6 C        8   1 H                                       1.0705730 (min)
     5   6 C        9   1 H                                       1.0717401

 * 3 distinct bonds (by element types)

   Z      Z             #   av. dist./Å        max./Å        min./Å
   1 H    6 C           4     1.0711740     1.0717436     1.0705730
   6 C    6 C           3     1.3792165     1.4178963     1.3598599
   6 C    8 O           2     1.3450654     1.3451042     1.3450265


optimized geometry written to: xtbopt.xyz


           -------------------------------------------------
          | TOTAL ENERGY              -14.650974068722 Eh   |
          | GRADIENT NORM               0.000529023128 Eh/α |
          | HOMO-LUMO GAP               4.928059072830 eV   |
           -------------------------------------------------

------------------------------------------------------------------------
 * finished run on 2022/11/04 at 10:55:57.932     
------------------------------------------------------------------------
 total:
 * wall-time:     0 d,  0 h,  0 min,  0.151 sec
 *  cpu-time:     0 d,  0 h,  0 min,  0.090 sec
 * ratio c/w:     0.595 speedup
 SCF:
 * wall-time:     0 d,  0 h,  0 min,  0.022 sec
 *  cpu-time:     0 d,  0 h,  0 min,  0.013 sec
 * ratio c/w:     0.610 speedup
 ANC optimizer:
 * wall-time:     0 d,  0 h,  0 min,  0.053 sec
 *  cpu-time:     0 d,  0 h,  0 min,  0.045 sec
 * ratio c/w:     0.856 speedup

