      -----------------------------------------------------------      
     |                   =====================                   |     
     |                           x T B                           |     
     |                   =====================                   |     
     |                         S. Grimme                         |     
     |          Mulliken Center for Theoretical Chemistry        |     
     |                    University of Bonn                     |     
      -----------------------------------------------------------      

   * xtb version 6.4.1 (afa7bdf) compiled by 'ehlert@majestix' on 2021-06-10

   xtb is free software: you can redistribute it and/or modify it under
   the terms of the GNU Lesser General Public License as published by
   the Free Software Foundation, either version 3 of the License, or
   (at your option) any later version.
   
   xtb is distributed in the hope that it will be useful,
   but WITHOUT ANY WARRANTY; without even the implied warranty of
   MERCHANTABILITY or FITNESS FOR A PARTICULAR PURPOSE.  See the
   GNU Lesser General Public License for more details.
   
   Cite this work as:
   * C. Bannwarth, E. Caldeweyher, S. Ehlert, A. Hansen, P. Pracht,
     J. Seibert, S. Spicher, S. Grimme, WIREs Comput. Mol. Sci., 2020, 11,
     e01493. DOI: 10.1002/wcms.1493
   
   for GFN2-xTB:
   * C. Bannwarth, S. Ehlert and S. Grimme., J. Chem. Theory Comput., 2019,
     15, 1652-1671. DOI: 10.1021/acs.jctc.8b01176
   for GFN1-xTB:
   * S. Grimme, C. Bannwarth, P. Shushkov, J. Chem. Theory Comput., 2017,
     13, 1989-2009. DOI: 10.1021/acs.jctc.7b00118
   for GFN0-xTB:
   * P. Pracht, E. Caldeweyher, S. Ehlert, S. Grimme, ChemRxiv, 2019, preprint.
     DOI: 10.26434/chemrxiv.8326202.v1
   for GFN-FF:
   * S. Spicher and S. Grimme, Angew. Chem. Int. Ed., 2020, 59, 15665-15673.
     DOI: 10.1002/anie.202004239
   
   for DFT-D4:
   * E. Caldeweyher, C. Bannwarth and S. Grimme, J. Chem. Phys., 2017,
     147, 034112. DOI: 10.1063/1.4993215
   * E. Caldeweyher, S. Ehlert, A. Hansen, H. Neugebauer, S. Spicher,
     C. Bannwarth and S. Grimme, J. Chem. Phys., 2019, 150, 154122.
     DOI: 10.1063/1.5090222
   * E. Caldeweyher, J.-M. Mewes, S. Ehlert and S. Grimme, Phys. Chem. Chem. Phys.
     2020, 22, 8499-8512. DOI: 10.1039/D0CP00502A
   
   for sTDA-xTB:
   * S. Grimme and C. Bannwarth, J. Chem. Phys., 2016, 145, 054103.
     DOI: 10.1063/1.4959605
   
   in the mass-spec context:
   * V. Asgeirsson, C. Bauer and S. Grimme, Chem. Sci., 2017, 8, 4879.
     DOI: 10.1039/c7sc00601b
   * J. Koopman and S. Grimme, ACS Omega 2019, 4, 12, 15120-15133.
     DOI: 10.1021/acsomega.9b02011
   
   for metadynamics refer to:
   * S. Grimme, J. Chem. Theory Comput., 2019, 155, 2847-2862
     DOI: 10.1021/acs.jctc.9b00143
   
   for SPH calculations refer to:
   * S. Spicher and S. Grimme, J. Chem. Theory Comput., 2021, 17, 1701-1714
     DOI: 10.1021/acs.jctc.0c01306
   
   with help from (in alphabetical order)
   P. Atkinson, C. Bannwarth, F. Bohle, G. Brandenburg, E. Caldeweyher
   M. Checinski, S. Dohm, S. Ehlert, S. Ehrlich, I. Gerasimov, J. Koopman
   C. Lavigne, S. Lehtola, F. März, M. Müller, F. Musil, H. Neugebauer
   J. Pisarek, C. Plett, P. Pracht, J. Seibert, P. Shushkov, S. Spicher
   M. Stahn, M. Steiner, T. Strunk, J. Stückrath, T. Rose, and J. Unsleber
   
 * started run on 2022/11/02 at 18:13:42.333     

           -------------------------------------------------
          |                Calculation Setup                |
           -------------------------------------------------

          program call               : /lustre/hpc/kemi/borup/pKalculator/dep/xtb-6.4.1/bin/xtb --gfn 2 /lustre/hpc/kemi/borup/pKalculator/calc/test#-1=8/conf02/test#-1=8_conf02_gfn2.xyz --opt --lmo --chrg -1 --uhf 0
          hostname                   : fend01.cluster
          coordinate file            : /lustre/hpc/kemi/borup/pKalculator/calc/test#-1=8/conf02/test#-1=8_conf02_gfn2.xyz
          omp threads                :                     1
          number of atoms            :                    18
          number of electrons        :                    56
          charge                     :                    -1
          spin                       :                   0.0
          first test random number   :      0.69078406026431

   ID    Z sym.   atoms
    1    6 C      1-5, 8-10
    2    7 N      6, 7
    3   16 S      11
    4    1 H      12-18

           -------------------------------------------------
          |                 G F N 2 - x T B                 |
           -------------------------------------------------

        Reference                      10.1021/acs.jctc.8b01176
      * Hamiltonian:
        H0-scaling (s, p, d)           1.850000    2.230000    2.230000
        zeta-weighting                 0.500000
      * Dispersion:
        s8                             2.700000
        a1                             0.520000
        a2                             5.000000
        s9                             5.000000
      * Repulsion:
        kExp                           1.500000    1.000000
        rExp                           1.000000
      * Coulomb:
        alpha                          2.000000
        third order                    shell-resolved
        anisotropic                    true
        a3                             3.000000
        a5                             4.000000
        cn-shift                       1.200000
        cn-exp                         4.000000
        max-rad                        5.000000


          ...................................................
          :                      SETUP                      :
          :.................................................:
          :  # basis functions                  57          :
          :  # atomic orbitals                  56          :
          :  # shells                           30          :
          :  # electrons                        56          :
          :  max. iterations                   250          :
          :  Hamiltonian                  GFN2-xTB          :
          :  restarted?                      false          :
          :  GBSA solvation                  false          :
          :  PC potential                    false          :
          :  electronic temp.          300.0000000     K    :
          :  accuracy                    1.0000000          :
          :  -> integral cutoff          0.2500000E+02      :
          :  -> integral neglect         0.1000000E-07      :
          :  -> SCF convergence          0.1000000E-05 Eh   :
          :  -> wf. convergence          0.1000000E-03 e    :
          :  Broyden damping             0.4000000          :
          ...................................................

 iter      E             dE          RMSdq      gap      omega  full diag
   1    -30.2493151 -0.302493E+02  0.416E+00    2.51       0.0  T
   2    -30.3193627 -0.700476E-01  0.285E+00    0.84       1.0  T
   3    -30.3306665 -0.113038E-01  0.150E+00    0.82       1.0  T
   4    -30.2981598  0.325067E-01  0.171E+00    0.39       1.0  T
   5    -30.3403964 -0.422366E-01  0.502E-01    0.69       1.0  T
   6    -30.3443831 -0.398670E-02  0.160E-01    0.55       1.0  T
   7    -30.3445710 -0.187849E-03  0.841E-02    0.45       1.0  T
   8    -30.3445947 -0.237674E-04  0.434E-02    0.43       1.0  T
   9    -30.3446043 -0.955061E-05  0.184E-02    0.44       1.3  T
  10    -30.3446059 -0.160968E-05  0.100E-02    0.44       2.4  T
  11    -30.3446060 -0.117368E-06  0.418E-03    0.44       5.6  T
  12    -30.3446062 -0.151637E-06  0.161E-03    0.44      14.6  T
  13    -30.3446062 -0.188841E-07  0.785E-04    0.44      30.0  T
  14    -30.3446062 -0.243327E-08  0.199E-04    0.44     118.3  T

   *** convergence criteria satisfied after 14 iterations ***

         #    Occupation            Energy/Eh            Energy/eV
      -------------------------------------------------------------
         1        2.0000           -0.5608703             -15.2621
       ...           ...                  ...                  ...
        22        2.0000           -0.2617188              -7.1217
        23        2.0000           -0.2593081              -7.0561
        24        2.0000           -0.2530432              -6.8857
        25        2.0000           -0.2436030              -6.6288
        26        2.0000           -0.2070905              -5.6352
        27        2.0000           -0.1946008              -5.2954
        28        1.9996           -0.1082605              -2.9459 (HOMO)
        29        0.0004           -0.0921401              -2.5073 (LUMO)
        30                         -0.0496503              -1.3511
        31                         -0.0182846              -0.4975
        32                          0.0109289               0.2974
        33                          0.0625864               1.7031
       ...                                ...                  ...
        56                          0.8572019              23.3257
      -------------------------------------------------------------
                  HL-Gap            0.0161205 Eh            0.4387 eV
             Fermi-level           -0.1002003 Eh           -2.7266 eV
 
 localization/xTB-IFF output generation
 averaging CT terms over            1  occ. levels
 averaging CT terms over            1  virt. levels
 dipole moment from electron density (au)
     X       Y       Z   
  -3.9043  -1.8454   0.4969  total (Debye):   11.049
cpu  time for init local    0.00 s
wall time for init local    0.00 s
 doing rotations ...
 initialization of trafo matrix to unity

 converged in     41 iterations, threshold :   0.99102153D-06
 doing transformations ...
 lmo centers(Z=2) and atoms on file <lmocent.coord>
 LMO Fii/eV  ncent    charge center   contributions...
    1 sigma -13.61   1.95  -5.34925   1.06913  -0.02798    7N :  0.56    6N :  0.44
    2 sigma -13.07   1.92  -6.11363  -0.75572   0.49185    7N :  0.58    8C :  0.43
    3 sigma -12.81   1.97  -7.39823   0.81189   0.11276    7N :  0.56   15H :  0.44
    4 sigma -11.46   2.01  -6.58941  -3.07955   1.12690   16H :  0.51    8C :  0.49
    5 sigma -10.76   2.00  -2.61277  -1.02367   0.44057    9C :  0.52    5C :  0.48
    6 sigma -10.38   2.01  -2.33616  -3.27552   1.02195   17H :  0.50    9C :  0.50
    7 pi    -10.05   2.16  -4.29687  -1.93775   1.27082    9C :  0.48    8C :  0.48
    8 pi    -10.04   2.16  -4.33145  -2.19590   0.29105    9C :  0.48    8C :  0.48
    9 sigma -10.02   2.01  -1.00003   0.65175  -0.07347    5C :  0.54    4C :  0.46
   10 pi    -10.01   2.12  -3.38913   1.16768   0.35396    6N :  0.55    5C :  0.42
   11 pi     -9.99   2.12  -3.42747   0.92431  -0.53810    6N :  0.55    5C :  0.41
   12 pi     -9.73   1.53  -5.93241   0.18633   0.23861    7N :  0.80    8C :  0.09
   13 sigma  -9.53   1.91   2.80670   3.59366  -1.31560   11S :  0.60   10C :  0.40
   14 sigma  -9.41   1.90   4.72267   2.22824  -0.72206   11S :  0.61    2C :  0.39
   15 sigma  -9.28   1.99   1.35476   0.23979   0.12537    4C :  0.52    3C :  0.48
   16 sigma  -9.28   2.00   3.70085   0.05517   0.21503    2C :  0.51    3C :  0.49
   17 sigma  -9.07   2.00   0.25007   4.31138  -1.63242   18H :  0.52   10C :  0.48
   18 LP     -8.73   1.10   5.12650   3.42031  -3.99161   11S :  0.95
   19 LP     -8.70   1.10   5.09304   5.41032   0.68313   11S :  0.95
   20 sigma  -8.65   2.01   2.37167  -1.78475   0.98669   14H :  0.53    3C :  0.47
   21 sigma  -8.45   2.00   7.23507  -1.75367   1.00138   13H :  0.53    1C :  0.47
   22 sigma  -8.38   1.98   8.34274   0.19436   0.17599   12H :  0.53    1C :  0.47
   23 LP     -8.14   1.03  -4.44243   3.56551  -0.73192    6N :  0.99
   24 pi     -7.95   2.13   0.74423   2.01635  -1.21283   10C :  0.52    4C :  0.45
   25 pi     -7.92   2.10   0.75816   2.43766  -0.25919   10C :  0.52    4C :  0.45
   26 pi     -7.26   2.00   6.10795  -0.17377  -0.26715    1C :  0.56    2C :  0.43
   27 pi     -7.25   2.00   6.10247   0.24641   0.71375    1C :  0.56    2C :  0.43
   28 delpi  -4.93   2.25   2.57164   0.06367   0.16401    3C :  0.64    2C :  0.14    4C :  0.12
 starting deloc pi regularization ...
 thr    2.20000000000000      # pi deloc LMO           6
 files:
 coordprot.0/xtbscreen.xyz/xtblmoinfo/lmocent.coord
 with protonation site input, xtbdock and
 LMO center info written
 

 SCC (total)                   0 d,  0 h,  0 min,  0.070 sec
 SCC setup                      ...        0 min,  0.000 sec (  0.468%)
 Dispersion                     ...        0 min,  0.000 sec (  0.362%)
 classical contributions        ...        0 min,  0.000 sec (  0.086%)
 integral evaluation            ...        0 min,  0.005 sec (  6.773%)
 iterations                     ...        0 min,  0.017 sec ( 24.292%)
 molecular gradient             ...        0 min,  0.010 sec ( 13.867%)
 printout                       ...        0 min,  0.038 sec ( 54.074%)

         :::::::::::::::::::::::::::::::::::::::::::::::::::::
         ::                     SUMMARY                     ::
         :::::::::::::::::::::::::::::::::::::::::::::::::::::
         :: total energy             -29.919305213171 Eh    ::
         :: gradient norm              0.066657903326 Eh/a0 ::
         :: HOMO-LUMO gap              0.438660059979 eV    ::
         ::.................................................::
         :: SCC energy               -30.344606186957 Eh    ::
         :: -> isotropic ES            0.109749368170 Eh    ::
         :: -> anisotropic ES          0.014987704663 Eh    ::
         :: -> anisotropic XC          0.019394125901 Eh    ::
         :: -> dispersion             -0.018910563870 Eh    ::
         :: repulsion energy           0.425336516879 Eh    ::
         :: add. restraining           0.000000000000 Eh    ::
         :: total charge              -1.000000000000 e     ::
         :::::::::::::::::::::::::::::::::::::::::::::::::::::

      ----------------------------------------------------------- 
     |                   =====================                   |
     |                        A N C O P T                        |
     |                   =====================                   |
     |               Approximate Normal Coordinate               |
     |                Rational Function Optimizer                |
      ----------------------------------------------------------- 

          ...................................................
          :                      SETUP                      :
          :.................................................:
          :   optimization level            normal          :
          :   max. optcycles                   200          :
          :   ANC micro-cycles                  20          :
          :   degrees of freedom                48          :
          :.................................................:
          :   RF solver                   davidson          :
          :   write xtbopt.log                true          :
          :   linear?                        false          :
          :   energy convergence         0.5000000E-05 Eh   :
          :   grad. convergence          0.1000000E-02 Eh/α :
          :   maximium RF displ.         1.0000000          :
          :   Hlow (freq-cutoff)         0.1000000E-01      :
          :   Hmax (freq-cutoff)         5.0000000          :
          :   S6 in model hess.         20.0000000          :
          ...................................................

generating ANC from model Hessian ...
Using Lindh-Hessian (1995)
 Shifting diagonal of input Hessian by   8.237932379184416E-003
 Lowest  eigenvalues of input Hessian
    0.000000    0.000000    0.000000    0.000000    0.000000    0.000000
    0.010000    0.011481    0.012783    0.016505    0.018965    0.023608
    0.032335    0.035582    0.041600    0.046670    0.048233    0.057000
 Highest eigenvalues
    1.682428    1.870763    1.884018    1.933864    1.981856    2.054755
 

........................................................................
.............................. CYCLE    1 ..............................
........................................................................
   1    -30.3446062 -0.303446E+02  0.925E-05    0.44       0.0  T
   2    -30.3446062 -0.328484E-10  0.534E-05    0.44     441.7  T
   3    -30.3446062  0.746070E-12  0.412E-05    0.44     571.8  T
     SCC iter.                  ...        0 min,  0.004 sec
     gradient                   ...        0 min,  0.009 sec
 * total energy  :   -29.9193052 Eh     change       -0.2080753E-09 Eh
   gradient norm :     0.0666593 Eh/α   predicted     0.0000000E+00 (-100.00%)
   displ. norm   :     0.1823906 α      lambda       -0.6526886E-02
   maximum displ.:     0.0850331 α      in ANC's #12, #10, #17, ...

........................................................................
.............................. CYCLE    2 ..............................
........................................................................
   1    -30.3622129 -0.303622E+02  0.270E-01    0.52       0.0  T
   2    -30.3620630  0.149883E-03  0.198E-01    0.55       1.0  T
   3    -30.3619510  0.111960E-03  0.192E-01    0.53       1.0  T
   4    -30.3623390 -0.387923E-03  0.650E-02    0.55       1.0  T
   5    -30.3624009 -0.619459E-04  0.849E-03    0.54       2.8  T
   6    -30.3624013 -0.386908E-06  0.402E-03    0.54       5.9  T
   7    -30.3624013 -0.224672E-08  0.188E-03    0.54      12.5  T
   8    -30.3624013 -0.397976E-07  0.686E-04    0.54      34.4  T
   9    -30.3624013 -0.650921E-09  0.338E-04    0.54      69.7  T
     SCC iter.                  ...        0 min,  0.010 sec
     gradient                   ...        0 min,  0.010 sec
 * total energy  :   -29.9238751 Eh     change       -0.4569845E-02 Eh
   gradient norm :     0.0290289 Eh/α   predicted    -0.3372008E-02 ( -26.21%)
   displ. norm   :     0.1515269 α      lambda       -0.2004851E-02
   maximum displ.:     0.0782555 α      in ANC's #12, #3, #17, ...

........................................................................
.............................. CYCLE    3 ..............................
........................................................................
   1    -30.3712354 -0.303712E+02  0.205E-01    0.58       0.0  T
   2    -30.3711745  0.609024E-04  0.141E-01    0.60       1.0  T
   3    -30.3710640  0.110431E-03  0.145E-01    0.59       1.0  T
   4    -30.3712928 -0.228720E-03  0.497E-02    0.60       1.0  T
   5    -30.3713291 -0.363620E-04  0.657E-03    0.60       3.6  T
   6    -30.3713293 -0.150686E-06  0.348E-03    0.60       6.8  T
   7    -30.3713293 -0.374677E-07  0.170E-03    0.60      13.8  T
   8    -30.3713293 -0.260690E-07  0.726E-04    0.60      32.5  T
   9    -30.3713293 -0.760572E-09  0.339E-04    0.60      69.4  T
     SCC iter.                  ...        0 min,  0.010 sec
     gradient                   ...        0 min,  0.010 sec
 * total energy  :   -29.9249590 Eh     change       -0.1083946E-02 Eh
   gradient norm :     0.0087290 Eh/α   predicted    -0.1025438E-02 (  -5.40%)
   displ. norm   :     0.0649398 α      lambda       -0.1538479E-03
   maximum displ.:     0.0553512 α      in ANC's #3, #8, #12, ...

........................................................................
.............................. CYCLE    4 ..............................
........................................................................
   1    -30.3707198 -0.303707E+02  0.470E-02    0.59       0.0  T
   2    -30.3707200 -0.237861E-06  0.284E-02    0.60       1.0  T
   3    -30.3707079  0.121050E-04  0.291E-02    0.60       1.0  T
   4    -30.3707208 -0.128666E-04  0.100E-02    0.59       2.3  T
   5    -30.3707222 -0.145673E-05  0.269E-03    0.60       8.7  T
   6    -30.3707223 -0.514122E-07  0.105E-03    0.60      22.5  T
   7    -30.3707223 -0.674070E-08  0.410E-04    0.60      57.5  T
   8    -30.3707223 -0.785093E-09  0.218E-04    0.60     108.3  T
     SCC iter.                  ...        0 min,  0.009 sec
     gradient                   ...        0 min,  0.010 sec
 * total energy  :   -29.9250760 Eh     change       -0.1170125E-03 Eh
   gradient norm :     0.0050799 Eh/α   predicted    -0.7724830E-04 ( -33.98%)
   displ. norm   :     0.0979866 α      lambda       -0.1185887E-03
   maximum displ.:     0.0882943 α      in ANC's #3, #8, #2, ...

........................................................................
.............................. CYCLE    5 ..............................
........................................................................
   1    -30.3695370 -0.303695E+02  0.535E-02    0.59       0.0  T
   2    -30.3695282  0.878391E-05  0.420E-02    0.59       1.0  T
   3    -30.3695253  0.292044E-05  0.355E-02    0.59       1.0  T
   4    -30.3695429 -0.175938E-04  0.812E-03    0.59       2.9  T
   5    -30.3695436 -0.722680E-06  0.336E-03    0.59       7.0  T
   6    -30.3695437 -0.834011E-07  0.113E-03    0.59      20.9  T
   7    -30.3695437 -0.658216E-08  0.424E-04    0.59      55.6  T
   8    -30.3695437 -0.139311E-08  0.210E-04    0.59     112.1  T
     SCC iter.                  ...        0 min,  0.009 sec
     gradient                   ...        0 min,  0.010 sec
 * total energy  :   -29.9251427 Eh     change       -0.6667068E-04 Eh
   gradient norm :     0.0018539 Eh/α   predicted    -0.5986320E-04 ( -10.21%)
   displ. norm   :     0.0478907 α      lambda       -0.1155841E-04
   maximum displ.:     0.0418807 α      in ANC's #3, #2, #1, ...

........................................................................
.............................. CYCLE    6 ..............................
........................................................................
   1    -30.3696114 -0.303696E+02  0.195E-02    0.59       0.0  T
   2    -30.3696093  0.207543E-05  0.168E-02    0.58       1.4  T
   3    -30.3696105 -0.125196E-05  0.127E-02    0.59       1.9  T
   4    -30.3696124 -0.181927E-05  0.259E-03    0.58       9.1  T
   5    -30.3696125 -0.858128E-07  0.107E-03    0.58      22.0  T
   6    -30.3696125 -0.723506E-08  0.342E-04    0.58      68.9  T
   7    -30.3696125 -0.114493E-08  0.100E-04    0.58     234.6  T
     SCC iter.                  ...        0 min,  0.008 sec
     gradient                   ...        0 min,  0.010 sec
 * total energy  :   -29.9251547 Eh     change       -0.1200781E-04 Eh
   gradient norm :     0.0012837 Eh/α   predicted    -0.5785355E-05 ( -51.82%)
   displ. norm   :     0.0417150 α      lambda       -0.7804299E-05
   maximum displ.:     0.0282410 α      in ANC's #3, #2, #1, ...

........................................................................
.............................. CYCLE    7 ..............................
........................................................................
   1    -30.3699646 -0.303700E+02  0.203E-02    0.59       0.0  T
   2    -30.3699647 -0.107030E-06  0.119E-02    0.59       2.0  T
   3    -30.3699622  0.247766E-05  0.134E-02    0.59       1.8  T
   4    -30.3699649 -0.267666E-05  0.371E-03    0.59       6.4  T
   5    -30.3699651 -0.200402E-06  0.763E-04    0.59      30.9  T
   6    -30.3699651 -0.136960E-08  0.367E-04    0.59      64.2  T
     SCC iter.                  ...        0 min,  0.007 sec
     gradient                   ...        0 min,  0.010 sec
 * total energy  :   -29.9251625 Eh     change       -0.7848361E-05 Eh
   gradient norm :     0.0008594 Eh/α   predicted    -0.3904594E-05 ( -50.25%)
   displ. norm   :     0.0457803 α      lambda       -0.3992021E-05
   maximum displ.:     0.0276384 α      in ANC's #2, #3, #1, ...

........................................................................
.............................. CYCLE    8 ..............................
........................................................................
   1    -30.3699262 -0.303699E+02  0.204E-02    0.59       0.0  T
   2    -30.3699262  0.214726E-07  0.122E-02    0.59       1.9  T
   3    -30.3699232  0.305192E-05  0.140E-02    0.59       1.7  T
   4    -30.3699264 -0.328532E-05  0.296E-03    0.59       8.0  T
   5    -30.3699266 -0.124020E-06  0.793E-04    0.59      29.7  T
   6    -30.3699266 -0.225561E-08  0.370E-04    0.59      63.7  T
     SCC iter.                  ...        0 min,  0.007 sec
     gradient                   ...        0 min,  0.010 sec
 * total energy  :   -29.9251672 Eh     change       -0.4616060E-05 Eh
   gradient norm :     0.0006147 Eh/α   predicted    -0.1998152E-05 ( -56.71%)
   displ. norm   :     0.0473538 α      lambda       -0.3243174E-05
   maximum displ.:     0.0309037 α      in ANC's #2, #1, #3, ...

   *** GEOMETRY OPTIMIZATION CONVERGED AFTER 8 ITERATIONS ***

------------------------------------------------------------------------
 total energy gain   :        -0.0058619 Eh       -3.6784 kcal/mol
 total RMSD          :         0.1196785 a0        0.0633 Å
 total power (kW/mol):        -1.9238174 (step)  -81.5453 (real)
------------------------------------------------------------------------

 ANCopt (total)                0 d,  0 h,  0 min,  0.189 sec
 optimizer setup                ...        0 min,  0.000 sec (  0.261%)
 model hessian                  ...        0 min,  0.003 sec (  1.391%)
 ANC generation                 ...        0 min,  0.001 sec (  0.378%)
 coordinate transformation      ...        0 min,  0.000 sec (  0.058%)
 single point calculation       ...        0 min,  0.180 sec ( 95.559%)
 optimization log               ...        0 min,  0.002 sec (  1.059%)
 hessian update                 ...        0 min,  0.000 sec (  0.061%)
 rational function              ...        0 min,  0.002 sec (  0.887%)

================
 final structure:
================
18
 xtb: 6.4.1 (afa7bdf)
C         3.79831492690168   -0.21278213402236    0.21726362485190
C         2.54899642367174    0.27661486240187    0.00440007801417
C         1.29043871634265   -0.30651848227101    0.23298281265096
C         0.19766546141667    0.50880231958569   -0.10539452663951
C        -1.17840115246963    0.10246487931918    0.05005580501017
N        -2.21104934089065    0.91402165336215   -0.15441844552336
N        -3.31199998768029    0.18425075773114    0.08254327312764
C        -3.01311494171299   -1.08790195037100    0.43777852790801
C        -1.64979679796725   -1.18451546548579    0.42972680448672
C         0.55089359008792    1.74205884668392   -0.60304308779407
S         2.29279088123798    1.91031849478672   -0.67533093679329
H         4.68256762869677    0.35710110160306   -0.01091137116407
H         3.93463336765735   -1.20081242436688    0.62772200698838
H         1.20474027169989   -1.29454312821033    0.65608265386627
H        -4.22066278620242    0.60679890292984   -0.01072322422116
H        -3.78240927129650   -1.80377797976807    0.66112770809544
H        -1.05677032092207   -2.04695886539252    0.65547059837499
H        -0.07683566857087    2.53537761148430   -0.95242630123917
 
 Bond Distances (Angstroems)
 ---------------------------
C1-C2=1.3585         C1-H12=1.0764        C1-H13=1.0785        C2-C1=1.3585         C2-C3=1.4058         C2-S11=1.7879        
C3-C2=1.4058         C3-C4=1.4048         C3-H14=1.0782        C4-C3=1.4048         C4-C5=1.4432         C4-C10=1.3760        
C5-C4=1.4432         C5-N6=1.3292         C5-C9=1.4222         N6-C5=1.3292         N6-N7=1.3419         N7-N6=1.3419         
N7-C8=1.3542         N7-H15=1.0064        C8-N7=1.3542         C8-C9=1.3668         C8-H16=1.0743        C9-C5=1.4222         
C9-C8=1.3668         C9-H17=1.0707        C10-C4=1.3760        C10-S11=1.7515       C10-H18=1.0703       S11-C2=1.7879        
S11-C10=1.7515       H12-C1=1.0764        H13-C1=1.0785        H14-C3=1.0782        H15-N7=1.0064        H16-C8=1.0743        
H17-C9=1.0707        H18-C10=1.0703       
 C  H  Rav=1.0748 sigma=0.0033  Rmin=1.0703  Rmax=1.0785     6
 C  C  Rav=1.3968 sigma=0.0286  Rmin=1.3585  Rmax=1.4432     7
 N  H  Rav=1.0064 sigma=0.0000  Rmin=1.0064  Rmax=1.0064     1
 N  C  Rav=1.3417 sigma=0.0125  Rmin=1.3292  Rmax=1.3542     2
 N  N  Rav=1.3419 sigma=0.0000  Rmin=1.3419  Rmax=1.3419     1
 S  C  Rav=1.7697 sigma=0.0182  Rmin=1.7515  Rmax=1.7879     2
 
 selected bond angles (degree)
 --------------------
H12-C1-C2=122.11               H13-C1-C2=120.39               H13-C1-H12=117.51              C3-C2-C1=130.42                
S11-C2-C1=121.37               S11-C2-C3=108.21               C4-C3-C2=114.61                H14-C3-C2=121.00               
H14-C3-C4=124.37               C5-C4-C3=123.53                C10-C4-C3=114.05               C10-C4-C5=122.42               
N6-C5-C4=123.52                C9-C5-C4=126.84                C9-C5-N6=109.64                N7-N6-C5=106.15                
C8-N7-N6=112.09                H15-N7-N6=119.74               H15-N7-C8=128.17               C9-C8-N7=106.56                
H16-C8-N7=121.50               H16-C8-C9=131.94               C8-C9-C5=105.56                H17-C9-C5=126.98               
H17-C9-C8=127.46               S11-C10-C4=110.87              H18-C10-C4=129.19              H18-C10-S11=119.91             
 
 selected dihedral angles (degree)
 ---------------------------------
C3-C2-C1-H12=179.91           C3-C2-C1-H13=359.86           S11-C2-C1-H12=  0.07          S11-C2-C1-H13=180.03          
C4-C3-C2-C1=179.70            C4-C3-C2-S11=359.55           H14-C3-C2-C1=  0.98           H14-C3-C2-S11=180.83          
C5-C4-C3-C2=179.98            C5-C4-C3-H14=358.64           C10-C4-C3-C2=359.96           C10-C4-C3-H14=178.63          
N6-C5-C4-C3=173.66            N6-C5-C4-C10=353.68           C9-C5-C4-C3=353.49            C9-C5-C4-C10=173.50           
N7-N6-C5-C4=179.84            N7-N6-C5-C9=  0.00            C8-N7-N6-C5=  0.00            H15-N7-N6-C5=179.78           
C9-C8-N7-N6=  0.00            C9-C8-N7-H15=180.25           H16-C8-N7-N6=180.06           H16-C8-N7-H15=  0.31          
C8-C9-C5-C4=180.17            C8-C9-C5-N6=  0.00            H17-C9-C5-C4=359.85           H17-C9-C5-N6=179.69           
C5-C9-C8-N7=  0.00            C5-C9-C8-H16=179.92           H17-C9-C8-N7=180.32           H17-C9-C8-H16=  0.24          
S11-C10-C4-C3=  0.53          S11-C10-C4-C5=180.51          H18-C10-C4-C3=178.51          H18-C10-C4-C5=358.50          
           -------------------------------------------------
          |                Final Singlepoint                |
           -------------------------------------------------

          ...................................................
          :                      SETUP                      :
          :.................................................:
          :  # basis functions                  57          :
          :  # atomic orbitals                  56          :
          :  # shells                           30          :
          :  # electrons                        56          :
          :  max. iterations                   250          :
          :  Hamiltonian                  GFN2-xTB          :
          :  restarted?                      false          :
          :  GBSA solvation                  false          :
          :  PC potential                    false          :
          :  electronic temp.          300.0000000     K    :
          :  accuracy                    1.0000000          :
          :  -> integral cutoff          0.2500000E+02      :
          :  -> integral neglect         0.1000000E-07      :
          :  -> SCF convergence          0.1000000E-05 Eh   :
          :  -> wf. convergence          0.1000000E-03 e    :
          :  Broyden damping             0.4000000          :
          ...................................................

 iter      E             dE          RMSdq      gap      omega  full diag
   1    -30.3699266 -0.303699E+02  0.107E-04    0.59       0.0  T
   2    -30.3699266 -0.182538E-10  0.732E-05    0.59     321.8  T
   3    -30.3699266 -0.371401E-10  0.508E-05    0.59     463.8  T

   *** convergence criteria satisfied after 3 iterations ***

         #    Occupation            Energy/Eh            Energy/eV
      -------------------------------------------------------------
         1        2.0000           -0.5617898             -15.2871
       ...           ...                  ...                  ...
        22        2.0000           -0.2620801              -7.1316
        23        2.0000           -0.2575293              -7.0077
        24        2.0000           -0.2529452              -6.8830
        25        2.0000           -0.2423388              -6.5944
        26        2.0000           -0.2073410              -5.6420
        27        2.0000           -0.1950953              -5.3088
        28        2.0000           -0.1094791              -2.9791 (HOMO)
        29        0.0000           -0.0879446              -2.3931 (LUMO)
        30                         -0.0489557              -1.3322
        31                         -0.0146844              -0.3996
        32                          0.0131659               0.3583
        33                          0.0666135               1.8126
       ...                                ...                  ...
        56                          0.8854469              24.0942
      -------------------------------------------------------------
                  HL-Gap            0.0215345 Eh            0.5860 eV
             Fermi-level           -0.0987119 Eh           -2.6861 eV
 
 localization/xTB-IFF output generation
 averaging CT terms over            1  occ. levels
 averaging CT terms over            1  virt. levels
 dipole moment from electron density (au)
     X       Y       Z   
  -3.8644  -1.8270   0.4912  total (Debye):   10.936
cpu  time for init local    0.00 s
wall time for init local    0.00 s
 doing rotations ...
 initialization of trafo matrix to unity
iteration     50  convergence  0.21085234D-04

 converged in     63 iterations, threshold :   0.97952715D-06
 doing transformations ...
 lmo centers(Z=2) and atoms on file <lmocent.coord>
 LMO Fii/eV  ncent    charge center   contributions...
    1 sigma -13.50   1.95  -5.29462   1.02805  -0.03147    7N :  0.57    6N :  0.44
    2 sigma -13.18   1.92  -6.09488  -0.71801   0.54623    7N :  0.58    8C :  0.43
    3 sigma -12.90   1.97  -7.32476   0.83237   0.05497    7N :  0.56   15H :  0.44
    4 sigma -11.48   2.01  -6.67319  -2.96625   1.11160   16H :  0.51    8C :  0.49
    5 sigma -10.74   1.99  -2.58397  -1.08645   0.47350    9C :  0.52    5C :  0.48
    6 sigma -10.38   2.01  -2.36822  -3.32673   1.09763   17H :  0.50    9C :  0.50
    7 sigma -10.12   2.01  -0.97188   0.56652  -0.04617    5C :  0.54    4C :  0.46
    8 pi    -10.01   2.17  -4.29039  -1.94354   1.28384    9C :  0.49    8C :  0.47
    9 pi     -9.98   2.11  -3.33071   1.11326   0.33993    6N :  0.55    5C :  0.41
   10 pi     -9.98   2.18  -4.30857  -2.21090   0.30514    9C :  0.49    8C :  0.47
   11 pi     -9.97   2.10  -3.36069   0.85331  -0.54817    6N :  0.55    5C :  0.41
   12 pi     -9.84   1.55  -5.91936   0.08525   0.09961    7N :  0.79    8C :  0.11
   13 sigma  -9.51   1.91   2.73986   3.54965  -1.24816   11S :  0.60   10C :  0.40
   14 sigma  -9.44   2.00   1.33442   0.17556   0.14515    4C :  0.52    3C :  0.48
   15 sigma  -9.32   2.00   3.66391  -0.02824   0.23847    2C :  0.52    3C :  0.48
   16 sigma  -9.31   1.90   4.65186   2.17013  -0.67611   11S :  0.61    2C :  0.39
   17 sigma  -9.08   2.00   0.24637   4.31592  -1.58820   18H :  0.52   10C :  0.48
   18 sigma  -8.70   2.01   2.33010  -1.85421   0.98471   14H :  0.53    3C :  0.47
   19 LP     -8.66   1.10   5.01426   3.38573  -3.92591   11S :  0.95
   20 LP     -8.66   1.11   5.02825   5.34506   0.73586   11S :  0.95
   21 sigma  -8.49   2.00   7.34568  -1.67733   0.94018   13H :  0.53    1C :  0.47
   22 sigma  -8.42   1.99   8.32240   0.33608   0.11482   12H :  0.53    1C :  0.47
   23 LP     -8.00   1.02  -4.30858   3.51016  -0.79500    6N :  0.99
   24 pi     -7.92   2.15   0.70205   1.97261  -1.16163   10C :  0.52    4C :  0.45
   25 pi     -7.86   2.13   0.71435   2.38437  -0.20898   10C :  0.52    4C :  0.44
   26 pi     -7.33   2.00   6.10594  -0.16516  -0.27725    1C :  0.56    2C :  0.43
   27 pi     -7.33   2.00   6.09910   0.24516   0.71509    1C :  0.56    2C :  0.43
   28 delpi  -5.05   2.25   2.49240   0.00283   0.16757    3C :  0.64    2C :  0.14    4C :  0.13
 starting deloc pi regularization ...
 thr    2.20000000000000      # pi deloc LMO           6
 files:
 coordprot.0/xtbscreen.xyz/xtblmoinfo/lmocent.coord
 with protonation site input, xtbdock and
 LMO center info written
 

 SCC (total)                   0 d,  0 h,  0 min,  0.034 sec
 SCC setup                      ...        0 min,  0.000 sec (  0.576%)
 Dispersion                     ...        0 min,  0.000 sec (  0.361%)
 classical contributions        ...        0 min,  0.000 sec (  0.122%)
 integral evaluation            ...        0 min,  0.004 sec ( 12.846%)
 iterations                     ...        0 min,  0.004 sec ( 12.381%)
 molecular gradient             ...        0 min,  0.010 sec ( 27.871%)
 printout                       ...        0 min,  0.016 sec ( 45.696%)

         :::::::::::::::::::::::::::::::::::::::::::::::::::::
         ::                     SUMMARY                     ::
         :::::::::::::::::::::::::::::::::::::::::::::::::::::
         :: total energy             -29.925167161363 Eh    ::
         :: gradient norm              0.000612297044 Eh/a0 ::
         :: HOMO-LUMO gap              0.585982643636 eV    ::
         ::.................................................::
         :: SCC energy               -30.369926571456 Eh    ::
         :: -> isotropic ES            0.110591893335 Eh    ::
         :: -> anisotropic ES          0.013601435938 Eh    ::
         :: -> anisotropic XC          0.019589714399 Eh    ::
         :: -> dispersion             -0.019012294585 Eh    ::
         :: repulsion energy           0.444796306790 Eh    ::
         :: add. restraining           0.000000000000 Eh    ::
         :: total charge              -1.000000000000 e     ::
         :::::::::::::::::::::::::::::::::::::::::::::::::::::

           -------------------------------------------------
          |                Property Printout                |
           -------------------------------------------------

    * Orbital Energies and Occupations

         #    Occupation            Energy/Eh            Energy/eV
      -------------------------------------------------------------
         1        2.0000           -0.5617898             -15.2871
       ...           ...                  ...                  ...
        16        2.0000           -0.3239561              -8.8153
        17        2.0000           -0.2970479              -8.0831
        18        2.0000           -0.2958852              -8.0514
        19        2.0000           -0.2749688              -7.4823
        20        2.0000           -0.2731153              -7.4318
        21        2.0000           -0.2652072              -7.2167
        22        2.0000           -0.2620801              -7.1316
        23        2.0000           -0.2575293              -7.0077
        24        2.0000           -0.2529452              -6.8830
        25        2.0000           -0.2423388              -6.5944
        26        2.0000           -0.2073410              -5.6420
        27        2.0000           -0.1950953              -5.3088
        28        2.0000           -0.1094791              -2.9791 (HOMO)
        29        0.0000           -0.0879446              -2.3931 (LUMO)
        30                         -0.0489557              -1.3322
        31                         -0.0146844              -0.3996
        32                          0.0131659               0.3583
        33                          0.0666135               1.8126
        34                          0.0748579               2.0370
        35                          0.1288915               3.5073
        36                          0.1837872               5.0011
        37                          0.2162723               5.8851
        38                          0.2223132               6.0495
        39                          0.2390777               6.5056
       ...                                ...                  ...
        56                          0.8854469              24.0942
      -------------------------------------------------------------
                  HL-Gap            0.0215345 Eh            0.5860 eV
             Fermi-level           -0.0987119 Eh           -2.6861 eV

     #   Z          covCN         q      C6AA      α(0)
     1   6 C        2.874    -0.193    33.065     9.426
     2   6 C        2.960     0.047    26.932     8.512
     3   6 C        3.071    -0.130    31.228     9.163
     4   6 C        3.123    -0.027    28.497     8.742
     5   6 C        3.135     0.073    26.158     8.372
     6   7 N        1.990    -0.266    27.703     7.806
     7   7 N        2.980    -0.023    21.683     6.916
     8   6 C        2.987    -0.016    28.407     8.743
     9   6 C        3.025    -0.077    29.899     8.969
    10   6 C        2.926    -0.057    29.405     8.893
    11  16 S        2.276    -0.303   154.198    20.900
    12   1 H        0.926    -0.043     3.922     3.097
    13   1 H        0.926    -0.049     4.069     3.154
    14   1 H        0.926    -0.045     3.973     3.117
    15   1 H        0.860     0.129     1.554     1.953
    16   1 H        0.926    -0.006     3.173     2.785
    17   1 H        0.926     0.009     2.909     2.667
    18   1 H        0.927    -0.024     3.501     2.926

 Mol. C6AA /au·bohr⁶  :       6092.463675
 Mol. C8AA /au·bohr⁸  :     167455.753085
 Mol. α(0) /au        :        126.140387


Wiberg/Mayer (AO) data.
largest (>0.10) Wiberg bond orders for each atom

 ---------------------------------------------------------------------------
     #   Z sym  total        # sym  WBO       # sym  WBO       # sym  WBO
 ---------------------------------------------------------------------------
     1   6 C    3.860 --     2 C    1.568    12 H    0.980    13 H    0.972
                             3 C    0.115    11 S    0.100
     2   6 C    3.931 --     1 C    1.568     3 C    1.287    11 S    1.006
     3   6 C    3.911 --     4 C    1.300     2 C    1.287    14 H    0.963
                            10 C    0.147     1 C    0.115
     4   6 C    3.975 --    10 C    1.449     3 C    1.300     5 C    1.089
     5   6 C    3.967 --     6 N    1.458     9 C    1.270     4 C    1.089
     6   7 N    2.933 --     5 C    1.458     7 N    1.172     8 C    0.163
     7   7 N    3.575 --     8 C    1.244     6 N    1.172    15 H    0.953
     8   6 C    3.950 --     9 C    1.554     7 N    1.244    16 H    0.969
                             6 N    0.163
     9   6 C    3.976 --     8 C    1.554     5 C    1.270    17 H    0.974
    10   6 C    3.871 --     4 C    1.449    11 S    1.076    18 H    0.972
                             3 C    0.147
    11  16 S    2.358 --    10 C    1.076     2 C    1.006     1 C    0.100
    12   1 H    0.998 --     1 C    0.980
    13   1 H    0.997 --     1 C    0.972
    14   1 H    0.998 --     3 C    0.963
    15   1 H    0.983 --     7 N    0.953
    16   1 H    0.999 --     8 C    0.969
    17   1 H    1.000 --     9 C    0.974
    18   1 H    0.999 --    10 C    0.972
 ---------------------------------------------------------------------------

Topologies differ in total number of bonds
Writing topology from bond orders to xtbtopo.mol

molecular dipole:
                 x           y           z       tot (Debye)
 q only:       -3.271      -1.160       0.255
   full:       -3.864      -1.827       0.491      10.936
molecular quadrupole (traceless):
                xx          xy          yy          xz          yz          zz
 q only:      -16.353      -4.961       3.802       0.740       3.653      12.551
  q+dip:      -11.754      -6.929       1.953       1.510       2.987       9.800
   full:      -12.474      -6.757       1.391       1.493       3.642      11.083

           -------------------------------------------------
          |                Geometry Summary                 |
           -------------------------------------------------

      molecular mass/u    :      163.2196663
   center of mass at/Å    :        0.1679707       0.4400490      -0.0799503
  moments of inertia/u·Å² :        0.1739322E+03   0.9346316E+03   0.1107538E+04
rotational constants/cm⁻¹ :        0.9692073E-01   0.1803666E-01   0.1522081E-01

 * 18 selected distances

     #   Z          #   Z                                           value/Å
     1   6 C        2   6 C                                       1.3585349
     2   6 C        3   6 C                                       1.4057959
     3   6 C        4   6 C                                       1.4047778
     4   6 C        5   6 C                                       1.4432028
     5   6 C        6   7 N                                       1.3292089
     6   7 N        7   7 N                                       1.3419422
     7   7 N        8   6 C                                       1.3542145
     5   6 C        9   6 C                                       1.4222104
     8   6 C        9   6 C                                       1.3667609
     4   6 C       10   6 C                                       1.3759890
    10   6 C       11  16 S                                       1.7514974 (max)
     1   6 C       12   1 H                                       1.0764449
     1   6 C       13   1 H                                       1.0785465
     3   6 C       14   1 H                                       1.0782163
     7   7 N       15   1 H                                       1.0064361 (min)
     8   6 C       16   1 H                                       1.0743264
     9   6 C       17   1 H                                       1.0707237
    10   6 C       18   1 H                                       1.0702651

 * 6 distinct bonds (by element types)

   Z      Z             #   av. dist./Å        max./Å        min./Å
   1 H    6 C           6     1.0747538     1.0785465     1.0702651
   6 C    6 C           7     1.3967531     1.4432028     1.3585349
   1 H    7 N           1     1.0064361     1.0064361     1.0064361
   6 C    7 N           2     1.3417117     1.3542145     1.3292089
   7 N    7 N           1     1.3419422     1.3419422     1.3419422
   6 C   16 S           1     1.7514974     1.7514974     1.7514974


optimized geometry written to: xtbopt.xyz


           -------------------------------------------------
          | TOTAL ENERGY              -29.925167161363 Eh   |
          | GRADIENT NORM               0.000612297044 Eh/α |
          | HOMO-LUMO GAP               0.585982643636 eV   |
           -------------------------------------------------

------------------------------------------------------------------------
 * finished run on 2022/11/02 at 18:13:42.751     
------------------------------------------------------------------------
 total:
 * wall-time:     0 d,  0 h,  0 min,  0.418 sec
 *  cpu-time:     0 d,  0 h,  0 min,  0.301 sec
 * ratio c/w:     0.720 speedup
 SCF:
 * wall-time:     0 d,  0 h,  0 min,  0.070 sec
 *  cpu-time:     0 d,  0 h,  0 min,  0.045 sec
 * ratio c/w:     0.647 speedup
 ANC optimizer:
 * wall-time:     0 d,  0 h,  0 min,  0.283 sec
 *  cpu-time:     0 d,  0 h,  0 min,  0.221 sec
 * ratio c/w:     0.782 speedup

