      -----------------------------------------------------------      
     |                   =====================                   |     
     |                           x T B                           |     
     |                   =====================                   |     
     |                         S. Grimme                         |     
     |          Mulliken Center for Theoretical Chemistry        |     
     |                    University of Bonn                     |     
      -----------------------------------------------------------      

   * xtb version 6.4.1 (afa7bdf) compiled by 'ehlert@majestix' on 2021-06-10

   xtb is free software: you can redistribute it and/or modify it under
   the terms of the GNU Lesser General Public License as published by
   the Free Software Foundation, either version 3 of the License, or
   (at your option) any later version.
   
   xtb is distributed in the hope that it will be useful,
   but WITHOUT ANY WARRANTY; without even the implied warranty of
   MERCHANTABILITY or FITNESS FOR A PARTICULAR PURPOSE.  See the
   GNU Lesser General Public License for more details.
   
   Cite this work as:
   * C. Bannwarth, E. Caldeweyher, S. Ehlert, A. Hansen, P. Pracht,
     J. Seibert, S. Spicher, S. Grimme, WIREs Comput. Mol. Sci., 2020, 11,
     e01493. DOI: 10.1002/wcms.1493
   
   for GFN2-xTB:
   * C. Bannwarth, S. Ehlert and S. Grimme., J. Chem. Theory Comput., 2019,
     15, 1652-1671. DOI: 10.1021/acs.jctc.8b01176
   for GFN1-xTB:
   * S. Grimme, C. Bannwarth, P. Shushkov, J. Chem. Theory Comput., 2017,
     13, 1989-2009. DOI: 10.1021/acs.jctc.7b00118
   for GFN0-xTB:
   * P. Pracht, E. Caldeweyher, S. Ehlert, S. Grimme, ChemRxiv, 2019, preprint.
     DOI: 10.26434/chemrxiv.8326202.v1
   for GFN-FF:
   * S. Spicher and S. Grimme, Angew. Chem. Int. Ed., 2020, 59, 15665-15673.
     DOI: 10.1002/anie.202004239
   
   for DFT-D4:
   * E. Caldeweyher, C. Bannwarth and S. Grimme, J. Chem. Phys., 2017,
     147, 034112. DOI: 10.1063/1.4993215
   * E. Caldeweyher, S. Ehlert, A. Hansen, H. Neugebauer, S. Spicher,
     C. Bannwarth and S. Grimme, J. Chem. Phys., 2019, 150, 154122.
     DOI: 10.1063/1.5090222
   * E. Caldeweyher, J.-M. Mewes, S. Ehlert and S. Grimme, Phys. Chem. Chem. Phys.
     2020, 22, 8499-8512. DOI: 10.1039/D0CP00502A
   
   for sTDA-xTB:
   * S. Grimme and C. Bannwarth, J. Chem. Phys., 2016, 145, 054103.
     DOI: 10.1063/1.4959605
   
   in the mass-spec context:
   * V. Asgeirsson, C. Bauer and S. Grimme, Chem. Sci., 2017, 8, 4879.
     DOI: 10.1039/c7sc00601b
   * J. Koopman and S. Grimme, ACS Omega 2019, 4, 12, 15120-15133.
     DOI: 10.1021/acsomega.9b02011
   
   for metadynamics refer to:
   * S. Grimme, J. Chem. Theory Comput., 2019, 155, 2847-2862
     DOI: 10.1021/acs.jctc.9b00143
   
   for SPH calculations refer to:
   * S. Spicher and S. Grimme, J. Chem. Theory Comput., 2021, 17, 1701-1714
     DOI: 10.1021/acs.jctc.0c01306
   
   with help from (in alphabetical order)
   P. Atkinson, C. Bannwarth, F. Bohle, G. Brandenburg, E. Caldeweyher
   M. Checinski, S. Dohm, S. Ehlert, S. Ehrlich, I. Gerasimov, J. Koopman
   C. Lavigne, S. Lehtola, F. März, M. Müller, F. Musil, H. Neugebauer
   J. Pisarek, C. Plett, P. Pracht, J. Seibert, P. Shushkov, S. Spicher
   M. Stahn, M. Steiner, T. Strunk, J. Stückrath, T. Rose, and J. Unsleber
   
 * started run on 2022/11/02 at 18:13:34.049     

           -------------------------------------------------
          |                Calculation Setup                |
           -------------------------------------------------

          program call               : /lustre/hpc/kemi/borup/pKalculator/dep/xtb-6.4.1/bin/xtb --gfn 2 /lustre/hpc/kemi/borup/pKalculator/calc/test/conf03/test_conf03_gfn2.xyz --opt --lmo --chrg 0 --uhf 0
          hostname                   : fend01.cluster
          coordinate file            : /lustre/hpc/kemi/borup/pKalculator/calc/test/conf03/test_conf03_gfn2.xyz
          omp threads                :                     1
          number of atoms            :                    19
          number of electrons        :                    56
          charge                     :                     0
          spin                       :                   0.0
          first test random number   :      0.03226556104728

   ID    Z sym.   atoms
    1    6 C      1-5, 7, 8, 11
    2   16 S      6
    3    7 N      9, 10
    4    1 H      12-19

           -------------------------------------------------
          |                 G F N 2 - x T B                 |
           -------------------------------------------------

        Reference                      10.1021/acs.jctc.8b01176
      * Hamiltonian:
        H0-scaling (s, p, d)           1.850000    2.230000    2.230000
        zeta-weighting                 0.500000
      * Dispersion:
        s8                             2.700000
        a1                             0.520000
        a2                             5.000000
        s9                             5.000000
      * Repulsion:
        kExp                           1.500000    1.000000
        rExp                           1.000000
      * Coulomb:
        alpha                          2.000000
        third order                    shell-resolved
        anisotropic                    true
        a3                             3.000000
        a5                             4.000000
        cn-shift                       1.200000
        cn-exp                         4.000000
        max-rad                        5.000000


          ...................................................
          :                      SETUP                      :
          :.................................................:
          :  # basis functions                  58          :
          :  # atomic orbitals                  57          :
          :  # shells                           31          :
          :  # electrons                        56          :
          :  max. iterations                   250          :
          :  Hamiltonian                  GFN2-xTB          :
          :  restarted?                      false          :
          :  GBSA solvation                  false          :
          :  PC potential                    false          :
          :  electronic temp.          300.0000000     K    :
          :  accuracy                    1.0000000          :
          :  -> integral cutoff          0.2500000E+02      :
          :  -> integral neglect         0.1000000E-07      :
          :  -> SCF convergence          0.1000000E-05 Eh   :
          :  -> wf. convergence          0.1000000E-03 e    :
          :  Broyden damping             0.4000000          :
          ...................................................

 iter      E             dE          RMSdq      gap      omega  full diag
   1    -30.6382521 -0.306383E+02  0.393E+00    3.41       0.0  T
   2    -30.6918840 -0.536319E-01  0.286E+00    3.38       1.0  T
   3    -30.7092367 -0.173527E-01  0.146E+00    3.47       1.0  T
   4    -30.7131226 -0.388589E-02  0.651E-01    3.45       1.0  T
   5    -30.7171269 -0.400429E-02  0.219E-01    3.44       1.0  T
   6    -30.7174630 -0.336100E-03  0.866E-02    3.45       1.0  T
   7    -30.7174948 -0.317474E-04  0.347E-02    3.45       1.0  T
   8    -30.7175073 -0.125166E-04  0.158E-02    3.45       1.4  T
   9    -30.7175081 -0.839821E-06  0.668E-03    3.45       3.4  T
  10    -30.7175083 -0.227521E-06  0.260E-03    3.45       8.8  T
  11    -30.7175084 -0.193414E-07  0.978E-04    3.45      23.5  T
  12    -30.7175084 -0.176663E-08  0.528E-04    3.45      43.4  T

   *** convergence criteria satisfied after 12 iterations ***

         #    Occupation            Energy/Eh            Energy/eV
      -------------------------------------------------------------
         1        2.0000           -0.7190456             -19.5662
       ...           ...                  ...                  ...
        22        2.0000           -0.4373488             -11.9009
        23        2.0000           -0.4341444             -11.8137
        24        2.0000           -0.4153014             -11.3009
        25        2.0000           -0.4051600             -11.0250
        26        2.0000           -0.3904907             -10.6258
        27        2.0000           -0.3803157             -10.3489
        28        2.0000           -0.3671684              -9.9912 (HOMO)
        29                         -0.2402977              -6.5388 (LUMO)
        30                         -0.2115821              -5.7574
        31                         -0.1922571              -5.2316
        32                         -0.1805003              -4.9117
        33                         -0.1160890              -3.1589
       ...                                ...                  ...
        57                          0.7252473              19.7350
      -------------------------------------------------------------
                  HL-Gap            0.1268708 Eh            3.4523 eV
             Fermi-level           -0.3037331 Eh           -8.2650 eV
 
 localization/xTB-IFF output generation
 averaging CT terms over            1  occ. levels
 averaging CT terms over            1  virt. levels
 dipole moment from electron density (au)
     X       Y       Z   
  -0.8541   0.4642  -0.0725  total (Debye):    2.478
cpu  time for init local    0.01 s
wall time for init local    0.00 s
 doing rotations ...
 initialization of trafo matrix to unity

 converged in     40 iterations, threshold :   0.99879270D-06
 doing transformations ...
 lmo centers(Z=2) and atoms on file <lmocent.coord>
 LMO Fii/eV  ncent    charge center   contributions...
    1 sigma -17.11   1.96  -4.42842   2.62300  -0.44592   10N :  0.56    9N :  0.45
    2 sigma -16.38   1.92  -6.20405   1.62586  -0.32233   10N :  0.58   11C :  0.43
    3 sigma -15.87   1.95  -6.19420   3.64247  -0.63188   10N :  0.58   18H :  0.43
    4 sigma -14.85   1.94   4.31525  -2.05027   0.40031    6S :  0.59    5C :  0.42
    5 sigma -14.85   1.94   2.35160  -3.52935   0.59856    6S :  0.58    7C :  0.42
    6 sigma -14.76   1.97   5.74184   0.16318   0.08466    5C :  0.51    8C :  0.50
    7 sigma -14.48   2.00  -3.60651  -0.69280   0.07556    1C :  0.51    2C :  0.49
    8 sigma -14.48   2.02  -1.22368  -0.33526   0.05924    2C :  0.50    3C :  0.49
    9 sigma -14.43   2.01  -8.04479   0.06529  -0.11395   11C :  0.51   19H :  0.49
   10 sigma -14.39   2.00   1.11094   0.05179   0.03817    3C :  0.50    4C :  0.50
   11 sigma -14.12   2.00  -0.11646  -4.28563   0.67603    7C :  0.51   14H :  0.49
   12 sigma -13.90   2.01   7.39697   1.06056   1.24698    8C :  0.52   17H :  0.48
   13 sigma -13.87   1.98   7.86151  -0.05476  -0.55566    8C :  0.52   15H :  0.48
   14 sigma -13.86   1.99   6.93221   1.90505  -0.69653    8C :  0.52   16H :  0.48
   15 LP    -13.83   1.18   4.37481  -4.56496  -1.65957    6S :  0.92
   16 LP    -13.81   1.19   4.30050  -3.83045   3.11107    6S :  0.92
   17 sigma -13.80   2.01  -4.83571  -2.65668   0.35620    1C :  0.50   12H :  0.49
   18 pi    -13.80   2.15  -2.89919   1.43491   0.22901    9N :  0.52    2C :  0.44
   19 pi    -13.76   2.16  -2.88420   1.29454  -0.68523    9N :  0.52    2C :  0.44
   20 sigma -13.52   2.02   2.14078   2.11553  -0.25891    4C :  0.51   13H :  0.48
   21 pi    -13.46   2.19  -5.61087  -0.41952   0.50977    1C :  0.49   11C :  0.47
   22 pi    -13.46   2.19  -5.59419  -0.57191  -0.48511    1C :  0.49   11C :  0.47
   23 pi    -13.29   2.17   0.41384  -1.87192   0.83601    7C :  0.48    3C :  0.48
   24 pi    -13.28   2.18   0.43073  -2.02388  -0.17715    7C :  0.48    3C :  0.48
   25 pi    -13.26   2.13   3.26620   0.22391   0.56440    4C :  0.49    5C :  0.48
   26 pi    -13.25   2.14   3.28012   0.06813  -0.46019    4C :  0.49    5C :  0.48
   27 pi    -13.22   1.60  -5.38592   2.27602  -0.40968   10N :  0.78   11C :  0.09    9N :  0.08
   28 LP    -11.68   1.02  -2.10032   4.07812  -0.63099    9N :  0.99
 starting deloc pi regularization ...
 thr    2.20000000000000      # pi deloc LMO           5
 files:
 coordprot.0/xtbscreen.xyz/xtblmoinfo/lmocent.coord
 with protonation site input, xtbdock and
 LMO center info written
 

 SCC (total)                   0 d,  0 h,  0 min,  0.077 sec
 SCC setup                      ...        0 min,  0.000 sec (  0.552%)
 Dispersion                     ...        0 min,  0.000 sec (  0.433%)
 classical contributions        ...        0 min,  0.000 sec (  0.104%)
 integral evaluation            ...        0 min,  0.008 sec ( 10.650%)
 iterations                     ...        0 min,  0.022 sec ( 28.147%)
 molecular gradient             ...        0 min,  0.016 sec ( 20.581%)
 printout                       ...        0 min,  0.030 sec ( 39.446%)

         :::::::::::::::::::::::::::::::::::::::::::::::::::::
         ::                     SUMMARY                     ::
         :::::::::::::::::::::::::::::::::::::::::::::::::::::
         :: total energy             -30.272335139212 Eh    ::
         :: gradient norm              0.053010794913 Eh/a0 ::
         :: HOMO-LUMO gap              3.452328839015 eV    ::
         ::.................................................::
         :: SCC energy               -30.717508367818 Eh    ::
         :: -> isotropic ES            0.010349722757 Eh    ::
         :: -> anisotropic ES          0.003868983712 Eh    ::
         :: -> anisotropic XC          0.020622239541 Eh    ::
         :: -> dispersion             -0.017818460769 Eh    ::
         :: repulsion energy           0.445216314322 Eh    ::
         :: add. restraining           0.000000000000 Eh    ::
         :: total charge               0.000000000000 e     ::
         :::::::::::::::::::::::::::::::::::::::::::::::::::::

      ----------------------------------------------------------- 
     |                   =====================                   |
     |                        A N C O P T                        |
     |                   =====================                   |
     |               Approximate Normal Coordinate               |
     |                Rational Function Optimizer                |
      ----------------------------------------------------------- 

          ...................................................
          :                      SETUP                      :
          :.................................................:
          :   optimization level            normal          :
          :   max. optcycles                   200          :
          :   ANC micro-cycles                  20          :
          :   degrees of freedom                51          :
          :.................................................:
          :   RF solver                   davidson          :
          :   write xtbopt.log                true          :
          :   linear?                        false          :
          :   energy convergence         0.5000000E-05 Eh   :
          :   grad. convergence          0.1000000E-02 Eh/α :
          :   maximium RF displ.         1.0000000          :
          :   Hlow (freq-cutoff)         0.1000000E-01      :
          :   Hmax (freq-cutoff)         5.0000000          :
          :   S6 in model hess.         20.0000000          :
          ...................................................

generating ANC from model Hessian ...
Using Lindh-Hessian (1995)
 Shifting diagonal of input Hessian by   8.181090343771295E-003
 Lowest  eigenvalues of input Hessian
    0.000000    0.000000    0.000000    0.000000    0.000000    0.000000
    0.010000    0.011468    0.012834    0.016190    0.018663    0.023855
    0.029838    0.034015    0.041571    0.044971    0.053043    0.062212
 Highest eigenvalues
    1.786632    1.798914    1.911097    1.983212    2.026530    2.112445
 

........................................................................
.............................. CYCLE    1 ..............................
........................................................................
   1    -30.7175084 -0.307175E+02  0.157E-04    3.45       0.0  T
   2    -30.7175084 -0.435314E-10  0.923E-05    3.45     248.5  T
   3    -30.7175084  0.242295E-11  0.584E-05    3.45     392.8  T
     SCC iter.                  ...        0 min,  0.005 sec
     gradient                   ...        0 min,  0.010 sec
 * total energy  :   -30.2723351 Eh     change       -0.1390529E-08 Eh
   gradient norm :     0.0530138 Eh/α   predicted     0.0000000E+00 (-100.00%)
   displ. norm   :     0.1753016 α      lambda       -0.4810138E-02
   maximum displ.:     0.0815701 α      in ANC's #7, #9, #15, ...

........................................................................
.............................. CYCLE    2 ..............................
........................................................................
   1    -30.7284010 -0.307284E+02  0.211E-01    3.42       0.0  T
   2    -30.7284525 -0.514291E-04  0.123E-01    3.42       1.0  T
   3    -30.7284381  0.143953E-04  0.655E-02    3.42       1.0  T
   4    -30.7284741 -0.360914E-04  0.197E-02    3.42       1.2  T
   5    -30.7284764 -0.228025E-05  0.914E-03    3.42       2.5  T
   6    -30.7284770 -0.536784E-06  0.380E-03    3.42       6.0  T
   7    -30.7284770 -0.849153E-07  0.149E-03    3.42      15.4  T
   8    -30.7284771 -0.126839E-07  0.811E-04    3.42      28.3  T
   9    -30.7284771 -0.223534E-08  0.175E-04    3.42     130.9  T
     SCC iter.                  ...        0 min,  0.011 sec
     gradient                   ...        0 min,  0.010 sec
 * total energy  :   -30.2756512 Eh     change       -0.3316048E-02 Eh
   gradient norm :     0.0207747 Eh/α   predicted    -0.2479107E-02 ( -25.24%)
   displ. norm   :     0.1568917 α      lambda       -0.1441715E-02
   maximum displ.:     0.1054679 α      in ANC's #7, #9, #18, ...

........................................................................
.............................. CYCLE    3 ..............................
........................................................................
   1    -30.7336455 -0.307336E+02  0.147E-01    3.40       0.0  T
   2    -30.7336669 -0.213546E-04  0.846E-02    3.40       1.0  T
   3    -30.7336604  0.649397E-05  0.473E-02    3.40       1.0  T
   4    -30.7336766 -0.162498E-04  0.117E-02    3.40       2.0  T
   5    -30.7336776 -0.921103E-06  0.607E-03    3.40       3.8  T
   6    -30.7336779 -0.341892E-06  0.175E-03    3.40      13.1  T
   7    -30.7336779 -0.118051E-07  0.582E-04    3.40      39.4  T
   8    -30.7336779 -0.269941E-08  0.298E-04    3.40      77.0  T
     SCC iter.                  ...        0 min,  0.010 sec
     gradient                   ...        0 min,  0.010 sec
 * total energy  :   -30.2764569 Eh     change       -0.8057131E-03 Eh
   gradient norm :     0.0072760 Eh/α   predicted    -0.7386661E-03 (  -8.32%)
   displ. norm   :     0.0615936 α      lambda       -0.1322001E-03
   maximum displ.:     0.0480743 α      in ANC's #7, #3, #4, ...

........................................................................
.............................. CYCLE    4 ..............................
........................................................................
   1    -30.7334205 -0.307334E+02  0.410E-02    3.40       0.0  T
   2    -30.7334213 -0.747123E-06  0.236E-02    3.40       1.0  T
   3    -30.7334202  0.109790E-05  0.108E-02    3.40       2.1  T
   4    -30.7334216 -0.141165E-05  0.272E-03    3.40       8.4  T
   5    -30.7334217 -0.625449E-07  0.122E-03    3.40      18.8  T
   6    -30.7334217 -0.521028E-08  0.508E-04    3.40      45.2  T
   7    -30.7334217 -0.192865E-08  0.259E-04    3.40      88.7  T
     SCC iter.                  ...        0 min,  0.009 sec
     gradient                   ...        0 min,  0.010 sec
 * total energy  :   -30.2765520 Eh     change       -0.9510397E-04 Eh
   gradient norm :     0.0045287 Eh/α   predicted    -0.6635251E-04 ( -30.23%)
   displ. norm   :     0.0628230 α      lambda       -0.7090291E-04
   maximum displ.:     0.0408260 α      in ANC's #7, #3, #4, ...

........................................................................
.............................. CYCLE    5 ..............................
........................................................................
   1    -30.7329107 -0.307329E+02  0.347E-02    3.40       0.0  T
   2    -30.7329116 -0.917998E-06  0.194E-02    3.40       1.2  T
   3    -30.7329112  0.425789E-06  0.764E-03    3.40       3.0  T
   4    -30.7329118 -0.613045E-06  0.248E-03    3.40       9.2  T
   5    -30.7329118 -0.529644E-07  0.104E-03    3.40      22.2  T
   6    -30.7329118 -0.560894E-08  0.483E-04    3.40      47.5  T
   7    -30.7329118 -0.101108E-08  0.237E-04    3.40      96.8  T
     SCC iter.                  ...        0 min,  0.009 sec
     gradient                   ...        0 min,  0.010 sec
 * total energy  :   -30.2765935 Eh     change       -0.4145446E-04 Eh
   gradient norm :     0.0016933 Eh/α   predicted    -0.3559542E-04 ( -14.13%)
   displ. norm   :     0.0444837 α      lambda       -0.1102607E-04
   maximum displ.:     0.0277414 α      in ANC's #3, #4, #5, ...

........................................................................
.............................. CYCLE    6 ..............................
........................................................................
   1    -30.7329117 -0.307329E+02  0.172E-02    3.41       0.0  T
   2    -30.7329119 -0.220800E-06  0.941E-03    3.41       2.4  T
   3    -30.7329118  0.115303E-06  0.460E-03    3.41       5.0  T
   4    -30.7329120 -0.161782E-06  0.153E-03    3.41      15.0  T
   5    -30.7329120 -0.177142E-07  0.610E-04    3.41      37.6  T
   6    -30.7329120 -0.303871E-08  0.263E-04    3.41      87.1  T
     SCC iter.                  ...        0 min,  0.008 sec
     gradient                   ...        0 min,  0.010 sec
 * total energy  :   -30.2766052 Eh     change       -0.1170193E-04 Eh
   gradient norm :     0.0012979 Eh/α   predicted    -0.5624046E-05 ( -51.94%)
   displ. norm   :     0.0679149 α      lambda       -0.1249009E-04
   maximum displ.:     0.0392101 α      in ANC's #4, #3, #5, ...

........................................................................
.............................. CYCLE    7 ..............................
........................................................................
   1    -30.7330832 -0.307331E+02  0.214E-02    3.41       0.0  T
   2    -30.7330835 -0.232414E-06  0.126E-02    3.41       1.8  T
   3    -30.7330831  0.336733E-06  0.592E-03    3.41       3.9  T
   4    -30.7330835 -0.406312E-06  0.188E-03    3.41      12.2  T
   5    -30.7330836 -0.317747E-07  0.659E-04    3.41      34.8  T
   6    -30.7330836 -0.278620E-08  0.300E-04    3.41      76.5  T
     SCC iter.                  ...        0 min,  0.008 sec
     gradient                   ...        0 min,  0.010 sec
 * total energy  :   -30.2766192 Eh     change       -0.1406363E-04 Eh
   gradient norm :     0.0015589 Eh/α   predicted    -0.6287028E-05 ( -55.30%)
   displ. norm   :     0.1188860 α      lambda       -0.1590041E-04
   maximum displ.:     0.0745076 α      in ANC's #4, #3, #5, ...

........................................................................
.............................. CYCLE    8 ..............................
........................................................................
   1    -30.7329860 -0.307330E+02  0.339E-02    3.41       0.0  T
   2    -30.7329863 -0.342598E-06  0.200E-02    3.41       1.1  T
   3    -30.7329858  0.495260E-06  0.652E-03    3.41       3.5  T
   4    -30.7329864 -0.556189E-06  0.217E-03    3.41      10.6  T
   5    -30.7329864 -0.458924E-07  0.802E-04    3.41      28.6  T
   6    -30.7329864 -0.362437E-08  0.350E-04    3.41      65.6  T
     SCC iter.                  ...        0 min,  0.008 sec
     gradient                   ...        0 min,  0.010 sec
 * total energy  :   -30.2766361 Eh     change       -0.1690036E-04 Eh
   gradient norm :     0.0023721 Eh/α   predicted    -0.8001294E-05 ( -52.66%)
   displ. norm   :     0.0888389 α      lambda       -0.1671251E-04
   maximum displ.:     0.0564648 α      in ANC's #4, #5, #6, ...

........................................................................
.............................. CYCLE    9 ..............................
........................................................................
   1    -30.7330083 -0.307330E+02  0.245E-02    3.41       0.0  T
   2    -30.7330084 -0.986349E-07  0.144E-02    3.41       1.6  T
   3    -30.7330084  0.725180E-07  0.276E-03    3.41       8.3  T
   4    -30.7330085 -0.908597E-07  0.111E-03    3.41      20.6  T
   5    -30.7330085 -0.672535E-08  0.523E-04    3.41      43.8  T
   6    -30.7330085 -0.231054E-08  0.191E-04    3.41     119.9  T
     SCC iter.                  ...        0 min,  0.008 sec
     gradient                   ...        0 min,  0.010 sec
 * total energy  :   -30.2766497 Eh     change       -0.1354160E-04 Eh
   gradient norm :     0.0024734 Eh/α   predicted    -0.8426418E-05 ( -37.77%)
   displ. norm   :     0.1654678 α      lambda       -0.3221563E-04
   maximum displ.:     0.1084055 α      in ANC's #4, #5, #6, ...

........................................................................
.............................. CYCLE   10 ..............................
........................................................................
   1    -30.7327720 -0.307328E+02  0.455E-02    3.40       0.0  T
   2    -30.7327722 -0.272599E-06  0.268E-02    3.40       1.0  T
   3    -30.7327721  0.132877E-06  0.420E-03    3.40       5.5  T
   4    -30.7327723 -0.189665E-06  0.165E-03    3.40      13.9  T
   5    -30.7327723 -0.134811E-07  0.584E-04    3.40      39.3  T
   6    -30.7327723 -0.140253E-08  0.228E-04    3.40     100.6  T
     SCC iter.                  ...        0 min,  0.008 sec
     gradient                   ...        0 min,  0.010 sec
 * total energy  :   -30.2766696 Eh     change       -0.1997445E-04 Eh
   gradient norm :     0.0030498 Eh/α   predicted    -0.1654961E-04 ( -17.15%)
   displ. norm   :     0.0662911 α      lambda       -0.2815165E-04
   maximum displ.:     0.0390894 α      in ANC's #4, #5, #6, ...

........................................................................
.............................. CYCLE   11 ..............................
........................................................................
   1    -30.7333226 -0.307333E+02  0.206E-02    3.40       0.0  T
   2    -30.7333228 -0.221116E-06  0.117E-02    3.40       2.0  T
   3    -30.7333226  0.178602E-06  0.466E-03    3.40       4.9  T
   4    -30.7333228 -0.194599E-06  0.174E-03    3.40      13.2  T
   5    -30.7333228 -0.297453E-07  0.542E-04    3.40      42.3  T
   6    -30.7333228 -0.108951E-08  0.264E-04    3.40      87.0  T
     SCC iter.                  ...        0 min,  0.008 sec
     gradient                   ...        0 min,  0.010 sec
 * total energy  :   -30.2766902 Eh     change       -0.2060227E-04 Eh
   gradient norm :     0.0018434 Eh/α   predicted    -0.1413852E-04 ( -31.37%)
   displ. norm   :     0.2524764 α      lambda       -0.3269554E-04
   maximum displ.:     0.1609268 α      in ANC's #4, #5, #6, ...

........................................................................
.............................. CYCLE   12 ..............................
........................................................................
   1    -30.7320680 -0.307321E+02  0.668E-02    3.40       0.0  T
   2    -30.7320688 -0.756465E-06  0.395E-02    3.40       1.0  T
   3    -30.7320677  0.112590E-05  0.986E-03    3.40       2.3  T
   4    -30.7320689 -0.123077E-05  0.371E-03    3.40       6.2  T
   5    -30.7320690 -0.128933E-06  0.123E-03    3.40      18.6  T
   6    -30.7320690 -0.639025E-08  0.520E-04    3.40      44.1  T
   7    -30.7320690 -0.283232E-08  0.203E-04    3.40     113.0  T
     SCC iter.                  ...        0 min,  0.009 sec
     gradient                   ...        0 min,  0.010 sec
 * total energy  :   -30.2767043 Eh     change       -0.1410385E-04 Eh
   gradient norm :     0.0048161 Eh/α   predicted    -0.1682233E-04 (  19.27%)
   displ. norm   :     0.0544662 α      lambda       -0.5667308E-04
   maximum displ.:     0.0460553 α      in ANC's #3, #4, #6, ...

........................................................................
.............................. CYCLE   13 ..............................
........................................................................
   1    -30.7332315 -0.307332E+02  0.236E-02    3.40       0.0  T
   2    -30.7332324 -0.861044E-06  0.132E-02    3.40       1.7  T
   3    -30.7332322  0.152482E-06  0.589E-03    3.40       3.9  T
   4    -30.7332325 -0.211855E-06  0.253E-03    3.40       9.1  T
   5    -30.7332325 -0.658921E-07  0.912E-04    3.40      25.2  T
   6    -30.7332325 -0.325299E-08  0.419E-04    3.40      54.8  T
     SCC iter.                  ...        0 min,  0.008 sec
     gradient                   ...        0 min,  0.010 sec
 * total energy  :   -30.2767314 Eh     change       -0.2707967E-04 Eh
   gradient norm :     0.0029061 Eh/α   predicted    -0.2842159E-04 (   4.96%)
   displ. norm   :     0.0546695 α      lambda       -0.1483720E-04
   maximum displ.:     0.0303408 α      in ANC's #4, #2, #5, ...

........................................................................
.............................. CYCLE   14 ..............................
........................................................................
   1    -30.7331977 -0.307332E+02  0.146E-02    3.40       0.0  T
   2    -30.7331977 -0.652727E-07  0.862E-03    3.40       2.7  T
   3    -30.7331976  0.715529E-07  0.261E-03    3.40       8.8  T
   4    -30.7331977 -0.832411E-07  0.823E-04    3.40      27.9  T
   5    -30.7331977 -0.663720E-08  0.289E-04    3.40      79.3  T
     SCC iter.                  ...        0 min,  0.007 sec
     gradient                   ...        0 min,  0.010 sec
 * total energy  :   -30.2767443 Eh     change       -0.1287648E-04 Eh
   gradient norm :     0.0019619 Eh/α   predicted    -0.7441889E-05 ( -42.21%)
   displ. norm   :     0.3244502 α      lambda       -0.3885250E-04
   maximum displ.:     0.1844251 α      in ANC's #4, #2, #5, ...

........................................................................
.............................. CYCLE   15 ..............................
........................................................................
   1    -30.7312375 -0.307312E+02  0.842E-02    3.40       0.0  T
   2    -30.7312405 -0.302059E-05  0.495E-02    3.40       1.0  T
   3    -30.7312398  0.701877E-06  0.107E-02    3.40       2.1  T
   4    -30.7312406 -0.833196E-06  0.457E-03    3.40       5.0  T
   5    -30.7312409 -0.242810E-06  0.154E-03    3.40      14.9  T
   6    -30.7312409  0.318312E-08  0.915E-04    3.40      25.1  T
   7    -30.7312409 -0.973674E-08  0.243E-04    3.40      94.2  T
     SCC iter.                  ...        0 min,  0.009 sec
     gradient                   ...        0 min,  0.010 sec
 * total energy  :   -30.2767140 Eh     change        0.3032676E-04 Eh
   gradient norm :     0.0069335 Eh/α   predicted    -0.2034363E-04 (-167.08%)
   displ. norm   :     0.1436035 α      lambda       -0.1079635E-03
   maximum displ.:     0.0875069 α      in ANC's #4, #5, #2, ...

........................................................................
.............................. CYCLE   16 ..............................
........................................................................
   1    -30.7331666 -0.307332E+02  0.409E-02    3.40       0.0  T
   2    -30.7331677 -0.111351E-05  0.237E-02    3.40       1.0  T
   3    -30.7331677 -0.226746E-07  0.491E-03    3.40       4.7  T
   4    -30.7331678 -0.442157E-07  0.162E-03    3.40      14.2  T
   5    -30.7331678 -0.178375E-07  0.846E-04    3.40      27.1  T
   6    -30.7331678 -0.285887E-08  0.265E-04    3.40      86.5  T
     SCC iter.                  ...        0 min,  0.008 sec
     gradient                   ...        0 min,  0.010 sec
 * total energy  :   -30.2767627 Eh     change       -0.4872632E-04 Eh
   gradient norm :     0.0018897 Eh/α   predicted    -0.5510084E-04 (  13.08%)
   displ. norm   :     0.0122321 α      lambda       -0.4834383E-05
   maximum displ.:     0.0070140 α      in ANC's #3, #13, #4, ...

........................................................................
.............................. CYCLE   17 ..............................
........................................................................
   1    -30.7331147 -0.307331E+02  0.108E-02    3.40       0.0  T
   2    -30.7331148 -0.114950E-06  0.625E-03    3.40       3.7  T
   3    -30.7331148  0.583095E-07  0.344E-03    3.40       6.7  T
   4    -30.7331149 -0.101786E-06  0.118E-03    3.40      19.5  T
   5    -30.7331149 -0.109996E-07  0.429E-04    3.40      53.5  T
   6    -30.7331149 -0.138880E-08  0.205E-04    3.40     112.1  T
     SCC iter.                  ...        0 min,  0.008 sec
     gradient                   ...        0 min,  0.010 sec
 * total energy  :   -30.2767667 Eh     change       -0.4021259E-05 Eh
   gradient norm :     0.0007510 Eh/α   predicted    -0.2420964E-05 ( -39.80%)
   displ. norm   :     0.0315446 α      lambda       -0.2511302E-05
   maximum displ.:     0.0172305 α      in ANC's #4, #2, #5, ...

   *** GEOMETRY OPTIMIZATION CONVERGED AFTER 17 ITERATIONS ***

------------------------------------------------------------------------
 total energy gain   :        -0.0044316 Eh       -2.7809 kcal/mol
 total RMSD          :         0.2551939 a0        0.1350 Å
 total power (kW/mol):        -0.6844192 (step)  -28.3661 (real)
------------------------------------------------------------------------

 ANCopt (total)                0 d,  0 h,  0 min,  0.410 sec
 optimizer setup                ...        0 min,  0.001 sec (  0.134%)
 model hessian                  ...        0 min,  0.003 sec (  0.796%)
 ANC generation                 ...        0 min,  0.001 sec (  0.196%)
 coordinate transformation      ...        0 min,  0.000 sec (  0.070%)
 single point calculation       ...        0 min,  0.398 sec ( 97.002%)
 optimization log               ...        0 min,  0.004 sec (  0.923%)
 hessian update                 ...        0 min,  0.000 sec (  0.071%)
 rational function              ...        0 min,  0.002 sec (  0.473%)

================
 final structure:
================
19
 xtb: 6.4.1 (afa7bdf)
C        -2.53215515475957   -0.73077258895667    0.08589235515188
C        -1.34809340396093    0.03702305436354   -0.01752522875061
C         0.02204287234293   -0.41195121815488    0.08930350377057
C         1.14242510595670    0.45653622578484   -0.05611004238530
C         2.33551167443887   -0.16857363705240    0.08269038598753
S         2.11398098464410   -1.86582870497133    0.40108873089872
C         0.40583118854160   -1.69689058628998    0.33894546483793
C         3.70470698412818    0.40630896804522    0.00580463407396
N        -1.64785999065943    1.31171529807968   -0.23878857522010
N        -2.97360595024728    1.37402003256799   -0.27738960376357
C        -3.55166271576468    0.16853471884226   -0.08728922335425
H        -2.61270844106576   -1.78318520187080    0.26005793140499
H         1.02735213020619    1.50553991801100   -0.25770354859145
H        -0.20796994729167   -2.56155797544168    0.49250968434490
H         4.31628712727110   -0.14835519388055   -0.70575116633605
H         3.65216512704053    1.44665448014653   -0.30739860450664
H         4.19692338682904    0.35753609417171    0.97798783167402
H        -3.42741583057669    2.25970180580648   -0.43521837472269
H        -4.61575514707325    0.04354451079909   -0.08932015451381
 
 Bond Distances (Angstroems)
 ---------------------------
C1-C2=1.4150         C1-C11=1.3705        C1-H12=1.0698        C2-C1=1.4150         C2-C3=1.4458         C2-N9=1.3280         
C3-C2=1.4458         C3-C4=1.4250         C3-C7=1.3641         C4-C3=1.4250         C4-C5=1.3541         C4-H13=1.0744        
C5-C4=1.3541         C5-S6=1.7410         C5-C8=1.4870         S6-C5=1.7410         S6-C7=1.7176         C7-C3=1.3641         
C7-S6=1.7176         C7-H14=1.0714        C8-C5=1.4870         C8-H15=1.0900        C8-H16=1.0877        C8-H17=1.0908        
N9-C2=1.3280         N9-N10=1.3278        N10-N9=1.3278        N10-C11=1.3504       N10-H18=1.0076       C11-C1=1.3705        
C11-N10=1.3504       C11-H19=1.0714       H12-C1=1.0698        H13-C4=1.0744        H14-C7=1.0714        H15-C8=1.0900        
H16-C8=1.0877        H17-C8=1.0908        H18-N10=1.0076       H19-C11=1.0714       
 C  H  Rav=1.0794 sigma=0.0089  Rmin=1.0698  Rmax=1.0908     7
 C  C  Rav=1.4088 sigma=0.0451  Rmin=1.3541  Rmax=1.4870     7
 N  H  Rav=1.0076 sigma=0.0000  Rmin=1.0076  Rmax=1.0076     1
 N  C  Rav=1.3392 sigma=0.0112  Rmin=1.3280  Rmax=1.3504     2
 N  N  Rav=1.3278 sigma=0.0000  Rmin=1.3278  Rmax=1.3278     1
 S  C  Rav=1.7293 sigma=0.0117  Rmin=1.7176  Rmax=1.7410     2
 
 selected bond angles (degree)
 --------------------
C11-C1-C2=104.90               H12-C1-C2=127.50               H12-C1-C11=127.60              C3-C2-C1=128.25                
N9-C2-C1=110.13                N9-C2-C3=121.62                C4-C3-C2=123.25                C7-C3-C2=124.94                
C7-C3-C4=111.81                C5-C4-C3=113.64                H13-C4-C3=122.01               H13-C4-C5=124.36               
S6-C5-C4=110.90                C8-C5-C4=128.87                C8-C5-S6=120.23                C7-S6-C5= 91.38                
S6-C7-C3=112.28                H14-C7-C3=128.70               H14-C7-S6=119.02               H15-C8-C5=110.71               
H16-C8-C5=109.89               H16-C8-H15=109.02              H17-C8-C5=110.62               H17-C8-H15=107.81              
H17-C8-H16=108.74              N10-N9-C2=105.98               C11-N10-N9=112.42              H18-N10-N9=119.70              
H18-N10-C11=127.87             
 
 selected dihedral angles (degree)
 ---------------------------------
C3-C2-C1-C11=179.91           C3-C2-C1-H12=359.85           N9-C2-C1-C11=359.97           N9-C2-C1-H12=179.91           
C4-C3-C2-C1=178.89            C4-C3-C2-N9=358.82            C7-C3-C2-C1=358.82            C7-C3-C2-N9=178.75            
C5-C4-C3-C2=179.92            C5-C4-C3-C7=  0.00            H13-C4-C3-C2=359.87           H13-C4-C3-C7=179.93           
S6-C5-C4-C3=  0.00            S6-C5-C4-H13=180.03           C8-C5-C4-C3=180.42            C8-C5-C4-H13=  0.48           
C7-S6-C5-C4=  0.04            C7-S6-C5-C8=179.64            S6-C7-C3-C2=180.11            S6-C7-C3-C4=  0.05            
H14-C7-C3-C2=  0.04           H14-C7-C3-C4=179.98           C3-C7-S6-C5=359.95            H14-C7-S6-C5=180.01           
H15-C8-C5-C4=232.78           H15-C8-C5-S6= 53.26           H16-C8-C5-C4=353.26           H16-C8-C5-S6=173.74           
H17-C8-C5-C4=113.33           H17-C8-C5-S6=293.81           N10-N9-C2-C1=  0.04           N10-N9-C2-C3=180.10           
C11-N10-N9-C2=359.96          H18-N10-N9-C2=179.93          
           -------------------------------------------------
          |                Final Singlepoint                |
           -------------------------------------------------

          ...................................................
          :                      SETUP                      :
          :.................................................:
          :  # basis functions                  58          :
          :  # atomic orbitals                  57          :
          :  # shells                           31          :
          :  # electrons                        56          :
          :  max. iterations                   250          :
          :  Hamiltonian                  GFN2-xTB          :
          :  restarted?                      false          :
          :  GBSA solvation                  false          :
          :  PC potential                    false          :
          :  electronic temp.          300.0000000     K    :
          :  accuracy                    1.0000000          :
          :  -> integral cutoff          0.2500000E+02      :
          :  -> integral neglect         0.1000000E-07      :
          :  -> SCF convergence          0.1000000E-05 Eh   :
          :  -> wf. convergence          0.1000000E-03 e    :
          :  Broyden damping             0.4000000          :
          ...................................................

 iter      E             dE          RMSdq      gap      omega  full diag
   1    -30.7331149 -0.307331E+02  0.866E-05    3.40       0.0  T
   2    -30.7331149 -0.111626E-10  0.615E-05    3.40     372.9  T
   3    -30.7331149 -0.998668E-11  0.434E-05    3.40     528.1  T

   *** convergence criteria satisfied after 3 iterations ***

         #    Occupation            Energy/Eh            Energy/eV
      -------------------------------------------------------------
         1        2.0000           -0.7196185             -19.5818
       ...           ...                  ...                  ...
        22        2.0000           -0.4393424             -11.9551
        23        2.0000           -0.4355796             -11.8527
        24        2.0000           -0.4177002             -11.3662
        25        2.0000           -0.4024432             -10.9510
        26        2.0000           -0.3888320             -10.5807
        27        2.0000           -0.3818209             -10.3899
        28        2.0000           -0.3661375              -9.9631 (HOMO)
        29                         -0.2412057              -6.5635 (LUMO)
        30                         -0.2102807              -5.7220
        31                         -0.1931090              -5.2548
        32                         -0.1810177              -4.9257
        33                         -0.1080622              -2.9405
       ...                                ...                  ...
        57                          0.7381091              20.0850
      -------------------------------------------------------------
                  HL-Gap            0.1249318 Eh            3.3996 eV
             Fermi-level           -0.3036716 Eh           -8.2633 eV
 
 localization/xTB-IFF output generation
 averaging CT terms over            1  occ. levels
 averaging CT terms over            1  virt. levels
 dipole moment from electron density (au)
     X       Y       Z   
  -0.8556   0.4674  -0.0999  total (Debye):    2.491
cpu  time for init local    0.01 s
wall time for init local    0.00 s
 doing rotations ...
 initialization of trafo matrix to unity

 converged in     42 iterations, threshold :   0.97618454D-06
 doing transformations ...
 lmo centers(Z=2) and atoms on file <lmocent.coord>
 LMO Fii/eV  ncent    charge center   contributions...
    1 sigma -17.08   1.96  -4.42494   2.56719  -0.49513   10N :  0.56    9N :  0.45
    2 sigma -16.55   1.92  -6.19091   1.61012  -0.37255   10N :  0.58   11C :  0.43
    3 sigma -15.99   1.95  -6.14928   3.60642  -0.70467   10N :  0.58   18H :  0.42
    4 sigma -14.87   1.93   2.40128  -3.45118   0.71522    6S :  0.58    7C :  0.42
    5 sigma -14.83   1.94   4.29607  -1.96810   0.46725    6S :  0.59    5C :  0.41
    6 sigma -14.68   1.97   5.70403   0.21309   0.08376    5C :  0.51    8C :  0.50
    7 sigma -14.61   2.02  -1.24832  -0.37033   0.06990    2C :  0.50    3C :  0.50
    8 sigma -14.50   2.00  -3.61901  -0.76168   0.08334    1C :  0.51    2C :  0.49
    9 sigma -14.47   2.01  -8.04000   0.16387  -0.16772   11C :  0.51   19H :  0.49
   10 sigma -14.46   2.00   1.05518   0.08641   0.02208    3C :  0.50    4C :  0.50
   11 sigma -14.10   2.01   0.00859  -4.28471   0.83196    7C :  0.51   14H :  0.49
   12 LP    -13.90   1.18   4.39430  -4.53582  -1.49021    6S :  0.92
   13 sigma -13.86   2.01   7.56166   0.69512   1.20685    8C :  0.52   17H :  0.48
   14 sigma -13.85   2.00   7.71706   0.07535  -0.86389    8C :  0.52   15H :  0.48
   15 LP    -13.85   1.19   4.29923  -3.62752   3.22991    6S :  0.92
   16 sigma -13.84   1.98   6.91919   2.04219  -0.37471    8C :  0.52   16H :  0.48
   17 sigma -13.80   2.01  -4.88126  -2.69947   0.38080    1C :  0.51   12H :  0.49
   18 pi    -13.76   2.16  -2.90448   1.37593   0.20676    9N :  0.52    2C :  0.44
   19 pi    -13.76   2.16  -2.88575   1.22468  -0.70225    9N :  0.52    2C :  0.44
   20 sigma -13.54   2.02   2.03197   2.14660  -0.35295    4C :  0.52   13H :  0.48
   21 delpi -13.42   2.20  -5.59693  -0.44456   0.49638    1C :  0.49   11C :  0.46
   22 delpi -13.42   2.21  -5.57648  -0.61075  -0.49287    1C :  0.49   11C :  0.46
   23 pi    -13.32   1.61  -5.41642   2.21665  -0.45303   10N :  0.78   11C :  0.10    9N :  0.08
   24 pi    -13.29   2.19   0.43449  -1.99775  -0.11429    7C :  0.48    3C :  0.48
   25 pi    -13.28   2.19   0.41531  -1.80640   0.89040    7C :  0.48    3C :  0.48
   26 pi    -13.26   2.14   3.21642   0.11504  -0.47575    4C :  0.49    5C :  0.48
   27 pi    -13.26   2.14   3.19742   0.30906   0.54598    4C :  0.49    5C :  0.48
   28 LP    -11.62   1.02  -2.04508   3.98687  -0.68191    9N :  0.99
 starting deloc pi regularization ...
 thr    2.20000000000000      # pi deloc LMO           5
 files:
 coordprot.0/xtbscreen.xyz/xtblmoinfo/lmocent.coord
 with protonation site input, xtbdock and
 LMO center info written
 

 SCC (total)                   0 d,  0 h,  0 min,  0.035 sec
 SCC setup                      ...        0 min,  0.000 sec (  0.461%)
 Dispersion                     ...        0 min,  0.000 sec (  0.355%)
 classical contributions        ...        0 min,  0.000 sec (  0.109%)
 integral evaluation            ...        0 min,  0.005 sec ( 13.282%)
 iterations                     ...        0 min,  0.004 sec ( 12.607%)
 molecular gradient             ...        0 min,  0.010 sec ( 29.729%)
 printout                       ...        0 min,  0.015 sec ( 43.322%)

         :::::::::::::::::::::::::::::::::::::::::::::::::::::
         ::                     SUMMARY                     ::
         :::::::::::::::::::::::::::::::::::::::::::::::::::::
         :: total energy             -30.276766725209 Eh    ::
         :: gradient norm              0.000752783530 Eh/a0 ::
         :: HOMO-LUMO gap              3.399566450153 eV    ::
         ::.................................................::
         :: SCC energy               -30.733114906005 Eh    ::
         :: -> isotropic ES            0.011030644548 Eh    ::
         :: -> anisotropic ES          0.003275339371 Eh    ::
         :: -> anisotropic XC          0.020648344829 Eh    ::
         :: -> dispersion             -0.017875503655 Eh    ::
         :: repulsion energy           0.456392347977 Eh    ::
         :: add. restraining           0.000000000000 Eh    ::
         :: total charge               0.000000000000 e     ::
         :::::::::::::::::::::::::::::::::::::::::::::::::::::

           -------------------------------------------------
          |                Property Printout                |
           -------------------------------------------------

    * Orbital Energies and Occupations

         #    Occupation            Energy/Eh            Energy/eV
      -------------------------------------------------------------
         1        2.0000           -0.7196185             -19.5818
       ...           ...                  ...                  ...
        16        2.0000           -0.4916565             -13.3787
        17        2.0000           -0.4789822             -13.0338
        18        2.0000           -0.4756102             -12.9420
        19        2.0000           -0.4657990             -12.6750
        20        2.0000           -0.4587457             -12.4831
        21        2.0000           -0.4525690             -12.3150
        22        2.0000           -0.4393424             -11.9551
        23        2.0000           -0.4355796             -11.8527
        24        2.0000           -0.4177002             -11.3662
        25        2.0000           -0.4024432             -10.9510
        26        2.0000           -0.3888320             -10.5807
        27        2.0000           -0.3818209             -10.3899
        28        2.0000           -0.3661375              -9.9631 (HOMO)
        29                         -0.2412057              -6.5635 (LUMO)
        30                         -0.2102807              -5.7220
        31                         -0.1931090              -5.2548
        32                         -0.1810177              -4.9257
        33                         -0.1080622              -2.9405
        34                         -0.0997582              -2.7146
        35                          0.0031677               0.0862
        36                          0.0197929               0.5386
        37                          0.0343166               0.9338
        38                          0.0448682               1.2209
        39                          0.1006882               2.7399
       ...                                ...                  ...
        57                          0.7381091              20.0850
      -------------------------------------------------------------
                  HL-Gap            0.1249318 Eh            3.3996 eV
             Fermi-level           -0.3036716 Eh           -8.2633 eV

     #   Z          covCN         q      C6AA      α(0)
     1   6 C        3.025    -0.075    29.840     8.960
     2   6 C        3.164     0.067    26.172     8.361
     3   6 C        3.158    -0.006    27.850     8.628
     4   6 C        3.121    -0.060    29.296     8.864
     5   6 C        2.979     0.027    27.388     8.584
     6  16 S        2.326    -0.057   143.409    20.155
     7   6 C        2.941    -0.029    28.725     8.790
     8   6 C        3.776    -0.107    22.569     6.769
     9   7 N        1.998    -0.227    26.756     7.672
    10   7 N        2.998     0.009    21.098     6.822
    11   6 C        3.007    -0.006    28.159     8.705
    12   1 H        0.927     0.025     2.652     2.546
    13   1 H        0.926     0.050     2.324     2.384
    14   1 H        0.926     0.039     2.467     2.456
    15   1 H        0.925     0.053     2.283     2.363
    16   1 H        0.925     0.050     2.316     2.380
    17   1 H        0.924     0.053     2.281     2.362
    18   1 H        0.860     0.160     1.332     1.808
    19   1 H        0.926     0.033     2.549     2.497

 Mol. C6AA /au·bohr⁶  :       5712.045584
 Mol. C8AA /au·bohr⁸  :     157110.212511
 Mol. α(0) /au        :        121.106517


Wiberg/Mayer (AO) data.
largest (>0.10) Wiberg bond orders for each atom

 ---------------------------------------------------------------------------
     #   Z sym  total        # sym  WBO       # sym  WBO       # sym  WBO
 ---------------------------------------------------------------------------
     1   6 C    3.980 --    11 C    1.539     2 C    1.299    12 H    0.974
     2   6 C    3.977 --     9 N    1.455     1 C    1.299     3 C    1.077
     3   6 C    3.987 --     7 C    1.560     4 C    1.210     2 C    1.077
     4   6 C    3.985 --     5 C    1.638     3 C    1.210    13 H    0.962
     5   6 C    3.951 --     4 C    1.638     6 S    1.138     8 C    1.037
                             7 C    0.104
     6  16 S    2.589 --     7 C    1.187     5 C    1.138
     7   6 C    3.943 --     3 C    1.560     6 S    1.187    14 H    0.970
                             5 C    0.104
     8   6 C    3.996 --     5 C    1.037    16 H    0.980    15 H    0.973
                            17 H    0.969
     9   7 N    2.965 --     2 C    1.455    10 N    1.216    11 C    0.160
    10   7 N    3.621 --    11 C    1.270     9 N    1.216    18 H    0.944
    11   6 C    3.958 --     1 C    1.539    10 N    1.270    19 H    0.969
                             9 N    0.160
    12   1 H    0.999 --     1 C    0.974
    13   1 H    0.998 --     4 C    0.962
    14   1 H    0.998 --     7 C    0.970
    15   1 H    0.997 --     8 C    0.973
    16   1 H    0.997 --     8 C    0.980
    17   1 H    0.997 --     8 C    0.969
    18   1 H    0.974 --    10 N    0.944
    19   1 H    0.998 --    11 C    0.969
 ---------------------------------------------------------------------------

Topologies differ in total number of bonds
Writing topology from bond orders to xtbtopo.mol

molecular dipole:
                 x           y           z       tot (Debye)
 q only:       -0.288       0.437      -0.084
   full:       -0.856       0.467      -0.100       2.491
molecular quadrupole (traceless):
                xx          xy          yy          xz          yz          zz
 q only:        8.552      -1.952      -2.797       0.573      -0.553      -5.755
  q+dip:       11.915      -1.174      -3.198       0.547      -1.007      -8.717
   full:       11.363      -0.792      -4.514       0.422      -0.420      -6.848

           -------------------------------------------------
          |                Geometry Summary                 |
           -------------------------------------------------

      molecular mass/u    :      164.2276070
   center of mass at/Å    :        0.0459449      -0.2702261       0.0661935
  moments of inertia/u·Å² :        0.1789818E+03   0.9452236E+03   0.1121047E+04
rotational constants/cm⁻¹ :        0.9418631E-01   0.1783454E-01   0.1503740E-01

 * 20 selected distances

     #   Z          #   Z                                           value/Å
     1   6 C        2   6 C                                       1.4149938
     2   6 C        3   6 C                                       1.4457744
     3   6 C        4   6 C                                       1.4250165
     4   6 C        5   6 C                                       1.3540618
     5   6 C        6  16 S                                       1.7410135 (max)
     3   6 C        7   6 C                                       1.3640688
     6  16 S        7   6 C                                       1.7176081
     5   6 C        8   6 C                                       1.4869759
     2   6 C        9   7 N                                       1.3280278
     9   7 N       10   7 N                                       1.3277704
     1   6 C       11   6 C                                       1.3704529
    10   7 N       11   6 C                                       1.3503639
     1   6 C       12   1 H                                       1.0697639
     4   6 C       13   1 H                                       1.0743791
     7   6 C       14   1 H                                       1.0714399
     8   6 C       15   1 H                                       1.0899515
     8   6 C       16   1 H                                       1.0877388
     8   6 C       17   1 H                                       1.0907777
    10   7 N       18   1 H                                       1.0076138 (min)
    11   6 C       19   1 H                                       1.0714100

 * 6 distinct bonds (by element types)

   Z      Z             #   av. dist./Å        max./Å        min./Å
   1 H    6 C           7     1.0793516     1.0907777     1.0697639
   6 C    6 C           7     1.4087635     1.4869759     1.3540618
   1 H    7 N           1     1.0076138     1.0076138     1.0076138
   6 C    7 N           2     1.3391958     1.3503639     1.3280278
   7 N    7 N           1     1.3277704     1.3277704     1.3277704
   6 C   16 S           2     1.7293108     1.7410135     1.7176081


optimized geometry written to: xtbopt.xyz


           -------------------------------------------------
          | TOTAL ENERGY              -30.276766725209 Eh   |
          | GRADIENT NORM               0.000752783530 Eh/α |
          | HOMO-LUMO GAP               3.399566450153 eV   |
           -------------------------------------------------

------------------------------------------------------------------------
 * finished run on 2022/11/02 at 18:13:34.676     
------------------------------------------------------------------------
 total:
 * wall-time:     0 d,  0 h,  0 min,  0.626 sec
 *  cpu-time:     0 d,  0 h,  0 min,  0.538 sec
 * ratio c/w:     0.858 speedup
 SCF:
 * wall-time:     0 d,  0 h,  0 min,  0.078 sec
 *  cpu-time:     0 d,  0 h,  0 min,  0.061 sec
 * ratio c/w:     0.783 speedup
 ANC optimizer:
 * wall-time:     0 d,  0 h,  0 min,  0.449 sec
 *  cpu-time:     0 d,  0 h,  0 min,  0.443 sec
 * ratio c/w:     0.987 speedup

