19
 energy: -30.276766725209 gnorm: 0.000752783530 xtb: 6.4.1 (afa7bdf)
C        -2.53215515475957   -0.73077258895667    0.08589235515188
C        -1.34809340396093    0.03702305436354   -0.01752522875061
C         0.02204287234293   -0.41195121815488    0.08930350377057
C         1.14242510595670    0.45653622578484   -0.05611004238530
C         2.33551167443887   -0.16857363705240    0.08269038598753
S         2.11398098464410   -1.86582870497133    0.40108873089872
C         0.40583118854160   -1.69689058628998    0.33894546483793
C         3.70470698412818    0.40630896804522    0.00580463407396
N        -1.64785999065943    1.31171529807968   -0.23878857522010
N        -2.97360595024728    1.37402003256799   -0.27738960376357
C        -3.55166271576468    0.16853471884226   -0.08728922335425
H        -2.61270844106576   -1.78318520187080    0.26005793140499
H         1.02735213020619    1.50553991801100   -0.25770354859145
H        -0.20796994729167   -2.56155797544168    0.49250968434490
H         4.31628712727110   -0.14835519388055   -0.70575116633605
H         3.65216512704053    1.44665448014653   -0.30739860450664
H         4.19692338682904    0.35753609417171    0.97798783167402
H        -3.42741583057669    2.25970180580648   -0.43521837472269
H        -4.61575514707325    0.04354451079909   -0.08932015451381
