      -----------------------------------------------------------      
     |                   =====================                   |     
     |                           x T B                           |     
     |                   =====================                   |     
     |                         S. Grimme                         |     
     |          Mulliken Center for Theoretical Chemistry        |     
     |                    University of Bonn                     |     
      -----------------------------------------------------------      

   * xtb version 6.4.1 (afa7bdf) compiled by 'ehlert@majestix' on 2021-06-10

   xtb is free software: you can redistribute it and/or modify it under
   the terms of the GNU Lesser General Public License as published by
   the Free Software Foundation, either version 3 of the License, or
   (at your option) any later version.
   
   xtb is distributed in the hope that it will be useful,
   but WITHOUT ANY WARRANTY; without even the implied warranty of
   MERCHANTABILITY or FITNESS FOR A PARTICULAR PURPOSE.  See the
   GNU Lesser General Public License for more details.
   
   Cite this work as:
   * C. Bannwarth, E. Caldeweyher, S. Ehlert, A. Hansen, P. Pracht,
     J. Seibert, S. Spicher, S. Grimme, WIREs Comput. Mol. Sci., 2020, 11,
     e01493. DOI: 10.1002/wcms.1493
   
   for GFN2-xTB:
   * C. Bannwarth, S. Ehlert and S. Grimme., J. Chem. Theory Comput., 2019,
     15, 1652-1671. DOI: 10.1021/acs.jctc.8b01176
   for GFN1-xTB:
   * S. Grimme, C. Bannwarth, P. Shushkov, J. Chem. Theory Comput., 2017,
     13, 1989-2009. DOI: 10.1021/acs.jctc.7b00118
   for GFN0-xTB:
   * P. Pracht, E. Caldeweyher, S. Ehlert, S. Grimme, ChemRxiv, 2019, preprint.
     DOI: 10.26434/chemrxiv.8326202.v1
   for GFN-FF:
   * S. Spicher and S. Grimme, Angew. Chem. Int. Ed., 2020, 59, 15665-15673.
     DOI: 10.1002/anie.202004239
   
   for DFT-D4:
   * E. Caldeweyher, C. Bannwarth and S. Grimme, J. Chem. Phys., 2017,
     147, 034112. DOI: 10.1063/1.4993215
   * E. Caldeweyher, S. Ehlert, A. Hansen, H. Neugebauer, S. Spicher,
     C. Bannwarth and S. Grimme, J. Chem. Phys., 2019, 150, 154122.
     DOI: 10.1063/1.5090222
   * E. Caldeweyher, J.-M. Mewes, S. Ehlert and S. Grimme, Phys. Chem. Chem. Phys.
     2020, 22, 8499-8512. DOI: 10.1039/D0CP00502A
   
   for sTDA-xTB:
   * S. Grimme and C. Bannwarth, J. Chem. Phys., 2016, 145, 054103.
     DOI: 10.1063/1.4959605
   
   in the mass-spec context:
   * V. Asgeirsson, C. Bauer and S. Grimme, Chem. Sci., 2017, 8, 4879.
     DOI: 10.1039/c7sc00601b
   * J. Koopman and S. Grimme, ACS Omega 2019, 4, 12, 15120-15133.
     DOI: 10.1021/acsomega.9b02011
   
   for metadynamics refer to:
   * S. Grimme, J. Chem. Theory Comput., 2019, 155, 2847-2862
     DOI: 10.1021/acs.jctc.9b00143
   
   for SPH calculations refer to:
   * S. Spicher and S. Grimme, J. Chem. Theory Comput., 2021, 17, 1701-1714
     DOI: 10.1021/acs.jctc.0c01306
   
   with help from (in alphabetical order)
   P. Atkinson, C. Bannwarth, F. Bohle, G. Brandenburg, E. Caldeweyher
   M. Checinski, S. Dohm, S. Ehlert, S. Ehrlich, I. Gerasimov, J. Koopman
   C. Lavigne, S. Lehtola, F. März, M. Müller, F. Musil, H. Neugebauer
   J. Pisarek, C. Plett, P. Pracht, J. Seibert, P. Shushkov, S. Spicher
   M. Stahn, M. Steiner, T. Strunk, J. Stückrath, T. Rose, and J. Unsleber
   
 * started run on 2022/11/02 at 18:13:33.959     

           -------------------------------------------------
          |                Calculation Setup                |
           -------------------------------------------------

          program call               : /lustre/hpc/kemi/borup/pKalculator/dep/xtb-6.4.1/bin/xtb --gfn 2 /lustre/hpc/kemi/borup/pKalculator/calc/test/conf07/test_conf07_gfn2.xyz --opt --lmo --chrg 0 --uhf 0
          hostname                   : fend01.cluster
          coordinate file            : /lustre/hpc/kemi/borup/pKalculator/calc/test/conf07/test_conf07_gfn2.xyz
          omp threads                :                     1
          number of atoms            :                    19
          number of electrons        :                    56
          charge                     :                     0
          spin                       :                   0.0
          first test random number   :      0.65377307383842

   ID    Z sym.   atoms
    1    6 C      1-5, 7, 8, 11
    2   16 S      6
    3    7 N      9, 10
    4    1 H      12-19

           -------------------------------------------------
          |                 G F N 2 - x T B                 |
           -------------------------------------------------

        Reference                      10.1021/acs.jctc.8b01176
      * Hamiltonian:
        H0-scaling (s, p, d)           1.850000    2.230000    2.230000
        zeta-weighting                 0.500000
      * Dispersion:
        s8                             2.700000
        a1                             0.520000
        a2                             5.000000
        s9                             5.000000
      * Repulsion:
        kExp                           1.500000    1.000000
        rExp                           1.000000
      * Coulomb:
        alpha                          2.000000
        third order                    shell-resolved
        anisotropic                    true
        a3                             3.000000
        a5                             4.000000
        cn-shift                       1.200000
        cn-exp                         4.000000
        max-rad                        5.000000


          ...................................................
          :                      SETUP                      :
          :.................................................:
          :  # basis functions                  58          :
          :  # atomic orbitals                  57          :
          :  # shells                           31          :
          :  # electrons                        56          :
          :  max. iterations                   250          :
          :  Hamiltonian                  GFN2-xTB          :
          :  restarted?                      false          :
          :  GBSA solvation                  false          :
          :  PC potential                    false          :
          :  electronic temp.          300.0000000     K    :
          :  accuracy                    1.0000000          :
          :  -> integral cutoff          0.2500000E+02      :
          :  -> integral neglect         0.1000000E-07      :
          :  -> SCF convergence          0.1000000E-05 Eh   :
          :  -> wf. convergence          0.1000000E-03 e    :
          :  Broyden damping             0.4000000          :
          ...................................................

 iter      E             dE          RMSdq      gap      omega  full diag
   1    -30.6381361 -0.306381E+02  0.363E+00    3.41       0.0  T
   2    -30.6917724 -0.536363E-01  0.264E+00    3.38       1.0  T
   3    -30.7107341 -0.189616E-01  0.138E+00    3.47       1.0  T
   4    -30.7129475 -0.221347E-02  0.618E-01    3.45       1.0  T
   5    -30.7170496 -0.410207E-02  0.203E-01    3.44       1.0  T
   6    -30.7173541 -0.304493E-03  0.838E-02    3.45       1.0  T
   7    -30.7173834 -0.293702E-04  0.339E-02    3.45       1.0  T
   8    -30.7173955 -0.120812E-04  0.154E-02    3.45       1.5  T
   9    -30.7173964 -0.907467E-06  0.650E-03    3.45       3.5  T
  10    -30.7173967 -0.231197E-06  0.256E-03    3.45       9.0  T
  11    -30.7173967 -0.193851E-07  0.953E-04    3.45      24.1  T
  12    -30.7173967 -0.175159E-08  0.518E-04    3.45      44.3  T

   *** convergence criteria satisfied after 12 iterations ***

         #    Occupation            Energy/Eh            Energy/eV
      -------------------------------------------------------------
         1        2.0000           -0.7190081             -19.5652
       ...           ...                  ...                  ...
        22        2.0000           -0.4373624             -11.9012
        23        2.0000           -0.4341218             -11.8131
        24        2.0000           -0.4152783             -11.3003
        25        2.0000           -0.4051688             -11.0252
        26        2.0000           -0.3904846             -10.6256
        27        2.0000           -0.3803363             -10.3495
        28        2.0000           -0.3671790              -9.9915 (HOMO)
        29                         -0.2402927              -6.5387 (LUMO)
        30                         -0.2115662              -5.7570
        31                         -0.1922748              -5.2321
        32                         -0.1805177              -4.9121
        33                         -0.1161743              -3.1613
       ...                                ...                  ...
        57                          0.7252218              19.7343
      -------------------------------------------------------------
                  HL-Gap            0.1268864 Eh            3.4528 eV
             Fermi-level           -0.3037359 Eh           -8.2651 eV
 
 localization/xTB-IFF output generation
 averaging CT terms over            1  occ. levels
 averaging CT terms over            1  virt. levels
 dipole moment from electron density (au)
     X       Y       Z   
   0.8570   0.4507   0.1130  total (Debye):    2.478
cpu  time for init local    0.00 s
wall time for init local    0.00 s
 doing rotations ...
 initialization of trafo matrix to unity

 converged in     40 iterations, threshold :   0.99211533D-06
 doing transformations ...
 lmo centers(Z=2) and atoms on file <lmocent.coord>
 LMO Fii/eV  ncent    charge center   contributions...
    1 sigma -17.11   1.96   4.46098   2.49918   0.75533   10N :  0.56    9N :  0.45
    2 sigma -16.38   1.92   6.19596   1.69407   0.04538   10N :  0.58   11C :  0.43
    3 sigma -15.87   1.95   6.23834   3.47282   1.04457   10N :  0.58   18H :  0.43
    4 sigma -14.85   1.94  -4.33135  -1.99377  -0.47605    6S :  0.59    5C :  0.42
    5 sigma -14.84   1.94  -2.42201  -3.21715  -1.44706    6S :  0.58    7C :  0.42
    6 sigma -14.76   1.97  -5.68950  -0.09848   0.78777    5C :  0.51    8C :  0.50
    7 sigma -14.48   2.02   1.20502  -0.24515  -0.31435    2C :  0.50    3C :  0.49
    8 sigma -14.48   2.00   3.55884  -0.46027  -0.78309    1C :  0.51    2C :  0.49
    9 sigma -14.43   2.01   7.98098   0.39451  -0.95028   11C :  0.51   19H :  0.49
   10 sigma -14.39   2.00  -1.10068  -0.00060   0.16049    3C :  0.50    4C :  0.50
   11 sigma -14.12   2.00   0.00637  -3.78153  -2.12191    7C :  0.51   14H :  0.49
   12 sigma -13.90   2.01  -7.49779   1.05598   0.24665    8C :  0.52   16H :  0.48
   13 sigma -13.87   1.98  -7.69054  -0.62435   1.60638    8C :  0.52   17H :  0.48
   14 sigma -13.86   1.99  -6.74874   1.21581   2.27590    8C :  0.52   15H :  0.48
   15 LP    -13.82   1.18  -4.10187  -5.06815   0.55787    6S :  0.92
   16 LP    -13.81   1.19  -4.71544  -2.71812  -3.61497    6S :  0.92
   17 sigma -13.80   2.01   4.72628  -2.14142  -1.90419    1C :  0.50   12H :  0.49
   18 pi    -13.78   2.16   2.84510   1.55038  -0.07786    9N :  0.52    2C :  0.44
   19 pi    -13.76   2.16   2.96265   1.09884   0.72092    9N :  0.52    2C :  0.44
   20 sigma -13.52   2.02  -2.06929   1.78027   1.30109    4C :  0.51   13H :  0.48
   21 pi    -13.47   2.18   5.48029   0.04252  -1.36436    1C :  0.49   11C :  0.47
   22 pi    -13.47   2.18   5.60778  -0.44846  -0.49479    1C :  0.49   11C :  0.47
   23 pi    -13.29   2.17  -0.53271  -1.49126  -1.34981    7C :  0.48    3C :  0.48
   24 pi    -13.29   2.18  -0.40329  -1.98700  -0.46226    7C :  0.48    3C :  0.48
   25 pi    -13.26   2.13  -3.30896   0.24243   0.02761    4C :  0.49    5C :  0.48
   26 pi    -13.25   2.14  -3.17558  -0.26056   0.92406    4C :  0.49    5C :  0.48
   27 pi    -13.22   1.60   5.40137   2.23288   0.46820   10N :  0.78   11C :  0.09    9N :  0.09
   28 LP    -11.69   1.02   2.19071   3.68561   1.75993    9N :  0.99
 starting deloc pi regularization ...
 thr    2.20000000000000      # pi deloc LMO           5
 files:
 coordprot.0/xtbscreen.xyz/xtblmoinfo/lmocent.coord
 with protonation site input, xtbdock and
 LMO center info written
 

 SCC (total)                   0 d,  0 h,  0 min,  0.055 sec
 SCC setup                      ...        0 min,  0.000 sec (  0.563%)
 Dispersion                     ...        0 min,  0.000 sec (  0.439%)
 classical contributions        ...        0 min,  0.000 sec (  0.113%)
 integral evaluation            ...        0 min,  0.005 sec (  8.848%)
 iterations                     ...        0 min,  0.017 sec ( 30.803%)
 molecular gradient             ...        0 min,  0.010 sec ( 18.981%)
 printout                       ...        0 min,  0.022 sec ( 40.150%)

         :::::::::::::::::::::::::::::::::::::::::::::::::::::
         ::                     SUMMARY                     ::
         :::::::::::::::::::::::::::::::::::::::::::::::::::::
         :: total energy             -30.272330541204 Eh    ::
         :: gradient norm              0.053183549168 Eh/a0 ::
         :: HOMO-LUMO gap              3.452753500270 eV    ::
         ::.................................................::
         :: SCC energy               -30.717396688453 Eh    ::
         :: -> isotropic ES            0.010348455491 Eh    ::
         :: -> anisotropic ES          0.003867705712 Eh    ::
         :: -> anisotropic XC          0.020632594088 Eh    ::
         :: -> dispersion             -0.017817800460 Eh    ::
         :: repulsion energy           0.445109247730 Eh    ::
         :: add. restraining           0.000000000000 Eh    ::
         :: total charge              -0.000000000000 e     ::
         :::::::::::::::::::::::::::::::::::::::::::::::::::::

      ----------------------------------------------------------- 
     |                   =====================                   |
     |                        A N C O P T                        |
     |                   =====================                   |
     |               Approximate Normal Coordinate               |
     |                Rational Function Optimizer                |
      ----------------------------------------------------------- 

          ...................................................
          :                      SETUP                      :
          :.................................................:
          :   optimization level            normal          :
          :   max. optcycles                   200          :
          :   ANC micro-cycles                  20          :
          :   degrees of freedom                51          :
          :.................................................:
          :   RF solver                   davidson          :
          :   write xtbopt.log                true          :
          :   linear?                        false          :
          :   energy convergence         0.5000000E-05 Eh   :
          :   grad. convergence          0.1000000E-02 Eh/α :
          :   maximium RF displ.         1.0000000          :
          :   Hlow (freq-cutoff)         0.1000000E-01      :
          :   Hmax (freq-cutoff)         5.0000000          :
          :   S6 in model hess.         20.0000000          :
          ...................................................

generating ANC from model Hessian ...
Using Lindh-Hessian (1995)
 Shifting diagonal of input Hessian by   8.182624273079078E-003
 Lowest  eigenvalues of input Hessian
    0.000000    0.000000    0.000000    0.000000    0.000000    0.000000
    0.010000    0.011469    0.012834    0.016183    0.018664    0.023842
    0.029840    0.034007    0.041560    0.044933    0.053009    0.062198
 Highest eigenvalues
    1.786582    1.798841    1.910615    1.983213    2.026379    2.112439
 

........................................................................
.............................. CYCLE    1 ..............................
........................................................................
   1    -30.7173967 -0.307174E+02  0.154E-04    3.45       0.0  T
   2    -30.7173967 -0.446434E-10  0.898E-05    3.45     255.4  T
   3    -30.7173967  0.774492E-12  0.551E-05    3.45     416.4  T
     SCC iter.                  ...        0 min,  0.004 sec
     gradient                   ...        0 min,  0.010 sec
 * total energy  :   -30.2723305 Eh     change       -0.1431964E-08 Eh
   gradient norm :     0.0531865 Eh/α   predicted     0.0000000E+00 (-100.00%)
   displ. norm   :     0.1759710 α      lambda       -0.4838329E-02
   maximum displ.:     0.0812266 α      in ANC's #7, #9, #15, ...

........................................................................
.............................. CYCLE    2 ..............................
........................................................................
   1    -30.7283723 -0.307284E+02  0.209E-01    3.42       0.0  T
   2    -30.7284239 -0.516344E-04  0.122E-01    3.42       1.0  T
   3    -30.7284077  0.162326E-04  0.641E-02    3.42       1.0  T
   4    -30.7284456 -0.379284E-04  0.195E-02    3.42       1.2  T
   5    -30.7284480 -0.239542E-05  0.886E-03    3.42       2.6  T
   6    -30.7284486 -0.546395E-06  0.383E-03    3.42       6.0  T
   7    -30.7284487 -0.963233E-07  0.148E-03    3.42      15.5  T
   8    -30.7284487 -0.130294E-07  0.796E-04    3.42      28.8  T
   9    -30.7284487 -0.218246E-08  0.165E-04    3.42     139.0  T
     SCC iter.                  ...        0 min,  0.012 sec
     gradient                   ...        0 min,  0.010 sec
 * total energy  :   -30.2756636 Eh     change       -0.3333070E-02 Eh
   gradient norm :     0.0208268 Eh/α   predicted    -0.2494207E-02 ( -25.17%)
   displ. norm   :     0.1564732 α      lambda       -0.1438959E-02
   maximum displ.:     0.1049657 α      in ANC's #7, #9, #18, ...

........................................................................
.............................. CYCLE    3 ..............................
........................................................................
   1    -30.7336567 -0.307337E+02  0.144E-01    3.40       0.0  T
   2    -30.7336781 -0.213846E-04  0.834E-02    3.40       1.0  T
   3    -30.7336710  0.717270E-05  0.461E-02    3.40       1.0  T
   4    -30.7336879 -0.169509E-04  0.114E-02    3.40       2.0  T
   5    -30.7336888 -0.913431E-06  0.590E-03    3.40       3.9  T
   6    -30.7336892 -0.355940E-06  0.173E-03    3.40      13.3  T
   7    -30.7336892 -0.130019E-07  0.559E-04    3.40      41.0  T
   8    -30.7336892 -0.269822E-08  0.281E-04    3.40      81.6  T
     SCC iter.                  ...        0 min,  0.010 sec
     gradient                   ...        0 min,  0.010 sec
 * total energy  :   -30.2764672 Eh     change       -0.8035750E-03 Eh
   gradient norm :     0.0072098 Eh/α   predicted    -0.7371593E-03 (  -8.27%)
   displ. norm   :     0.0612930 α      lambda       -0.1306869E-03
   maximum displ.:     0.0478865 α      in ANC's #7, #3, #4, ...

........................................................................
.............................. CYCLE    4 ..............................
........................................................................
   1    -30.7334337 -0.307334E+02  0.401E-02    3.40       0.0  T
   2    -30.7334344 -0.738916E-06  0.232E-02    3.40       1.0  T
   3    -30.7334333  0.113981E-05  0.105E-02    3.40       2.2  T
   4    -30.7334348 -0.145532E-05  0.262E-03    3.40       8.7  T
   5    -30.7334348 -0.628771E-07  0.119E-03    3.40      19.2  T
   6    -30.7334348 -0.558995E-08  0.493E-04    3.40      46.5  T
   7    -30.7334348 -0.191008E-08  0.251E-04    3.40      91.3  T
     SCC iter.                  ...        0 min,  0.009 sec
     gradient                   ...        0 min,  0.010 sec
 * total energy  :   -30.2765612 Eh     change       -0.9397959E-04 Eh
   gradient norm :     0.0044736 Eh/α   predicted    -0.6559157E-04 ( -30.21%)
   displ. norm   :     0.0625511 α      lambda       -0.6979230E-04
   maximum displ.:     0.0407472 α      in ANC's #7, #3, #4, ...

........................................................................
.............................. CYCLE    5 ..............................
........................................................................
   1    -30.7329254 -0.307329E+02  0.339E-02    3.40       0.0  T
   2    -30.7329263 -0.891108E-06  0.191E-02    3.40       1.2  T
   3    -30.7329258  0.438444E-06  0.742E-03    3.40       3.1  T
   4    -30.7329264 -0.618414E-06  0.241E-03    3.40       9.5  T
   5    -30.7329265 -0.571338E-07  0.997E-04    3.40      23.0  T
   6    -30.7329265 -0.509120E-08  0.464E-04    3.40      49.5  T
     SCC iter.                  ...        0 min,  0.008 sec
     gradient                   ...        0 min,  0.010 sec
 * total energy  :   -30.2766020 Eh     change       -0.4081422E-04 Eh
   gradient norm :     0.0016957 Eh/α   predicted    -0.3503702E-04 ( -14.15%)
   displ. norm   :     0.0443116 α      lambda       -0.1088885E-04
   maximum displ.:     0.0280023 α      in ANC's #3, #4, #5, ...

........................................................................
.............................. CYCLE    6 ..............................
........................................................................
   1    -30.7329258 -0.307329E+02  0.173E-02    3.41       0.0  T
   2    -30.7329260 -0.215827E-06  0.952E-03    3.41       2.4  T
   3    -30.7329259  0.112297E-06  0.440E-03    3.41       5.2  T
   4    -30.7329260 -0.152303E-06  0.147E-03    3.41      15.6  T
   5    -30.7329260 -0.189465E-07  0.550E-04    3.41      41.7  T
   6    -30.7329260 -0.247680E-08  0.272E-04    3.41      84.3  T
     SCC iter.                  ...        0 min,  0.008 sec
     gradient                   ...        0 min,  0.010 sec
 * total energy  :   -30.2766135 Eh     change       -0.1154772E-04 Eh
   gradient norm :     0.0012894 Eh/α   predicted    -0.5554047E-05 ( -51.90%)
   displ. norm   :     0.0671156 α      lambda       -0.1223495E-04
   maximum displ.:     0.0384949 α      in ANC's #4, #3, #5, ...

........................................................................
.............................. CYCLE    7 ..............................
........................................................................
   1    -30.7330991 -0.307331E+02  0.219E-02    3.41       0.0  T
   2    -30.7330993 -0.231143E-06  0.129E-02    3.41       1.8  T
   3    -30.7330989  0.364687E-06  0.590E-03    3.41       3.9  T
   4    -30.7330994 -0.432164E-06  0.187E-03    3.41      12.2  T
   5    -30.7330994 -0.338356E-07  0.637E-04    3.41      36.0  T
   6    -30.7330994 -0.254474E-08  0.311E-04    3.41      73.9  T
     SCC iter.                  ...        0 min,  0.008 sec
     gradient                   ...        0 min,  0.010 sec
 * total energy  :   -30.2766273 Eh     change       -0.1374289E-04 Eh
   gradient norm :     0.0015295 Eh/α   predicted    -0.6158325E-05 ( -55.19%)
   displ. norm   :     0.1157757 α      lambda       -0.1528533E-04
   maximum displ.:     0.0722960 α      in ANC's #4, #3, #5, ...

........................................................................
.............................. CYCLE    8 ..............................
........................................................................
   1    -30.7330131 -0.307330E+02  0.351E-02    3.41       0.0  T
   2    -30.7330135 -0.328287E-06  0.207E-02    3.41       1.1  T
   3    -30.7330130  0.508560E-06  0.638E-03    3.41       3.6  T
   4    -30.7330135 -0.565510E-06  0.217E-03    3.41      10.6  T
   5    -30.7330136 -0.466558E-07  0.791E-04    3.41      29.0  T
   6    -30.7330136 -0.350036E-08  0.354E-04    3.41      64.8  T
     SCC iter.                  ...        0 min,  0.008 sec
     gradient                   ...        0 min,  0.010 sec
 * total energy  :   -30.2766436 Eh     change       -0.1629266E-04 Eh
   gradient norm :     0.0023088 Eh/α   predicted    -0.7689279E-05 ( -52.81%)
   displ. norm   :     0.0881274 α      lambda       -0.1628082E-04
   maximum displ.:     0.0558604 α      in ANC's #4, #5, #6, ...

........................................................................
.............................. CYCLE    9 ..............................
........................................................................
   1    -30.7330328 -0.307330E+02  0.259E-02    3.41       0.0  T
   2    -30.7330329 -0.978116E-07  0.152E-02    3.41       1.5  T
   3    -30.7330328  0.729521E-07  0.279E-03    3.41       8.2  T
   4    -30.7330329 -0.892165E-07  0.122E-03    3.41      18.8  T
   5    -30.7330329 -0.800682E-08  0.542E-04    3.41      42.3  T
   6    -30.7330329 -0.288371E-08  0.193E-04    3.41     119.0  T
     SCC iter.                  ...        0 min,  0.008 sec
     gradient                   ...        0 min,  0.010 sec
 * total energy  :   -30.2766567 Eh     change       -0.1313846E-04 Eh
   gradient norm :     0.0024124 Eh/α   predicted    -0.8206936E-05 ( -37.54%)
   displ. norm   :     0.1618316 α      lambda       -0.3063713E-04
   maximum displ.:     0.1060373 α      in ANC's #4, #5, #6, ...

........................................................................
.............................. CYCLE   10 ..............................
........................................................................
   1    -30.7328019 -0.307328E+02  0.477E-02    3.40       0.0  T
   2    -30.7328021 -0.258555E-06  0.280E-02    3.40       1.0  T
   3    -30.7328020  0.126501E-06  0.418E-03    3.40       5.5  T
   4    -30.7328022 -0.176611E-06  0.175E-03    3.40      13.1  T
   5    -30.7328022 -0.160500E-07  0.586E-04    3.40      39.1  T
   6    -30.7328022 -0.177583E-08  0.221E-04    3.40     103.8  T
     SCC iter.                  ...        0 min,  0.008 sec
     gradient                   ...        0 min,  0.010 sec
 * total energy  :   -30.2766757 Eh     change       -0.1903477E-04 Eh
   gradient norm :     0.0029689 Eh/α   predicted    -0.1572052E-04 ( -17.41%)
   displ. norm   :     0.0660662 α      lambda       -0.2661910E-04
   maximum displ.:     0.0393430 α      in ANC's #4, #5, #6, ...

........................................................................
.............................. CYCLE   11 ..............................
........................................................................
   1    -30.7333157 -0.307333E+02  0.210E-02    3.40       0.0  T
   2    -30.7333159 -0.201418E-06  0.120E-02    3.40       1.9  T
   3    -30.7333157  0.184871E-06  0.449E-03    3.40       5.1  T
   4    -30.7333159 -0.197786E-06  0.170E-03    3.40      13.5  T
   5    -30.7333160 -0.301449E-07  0.527E-04    3.40      43.6  T
   6    -30.7333160 -0.970402E-09  0.261E-04    3.40      87.9  T
     SCC iter.                  ...        0 min,  0.008 sec
     gradient                   ...        0 min,  0.010 sec
 * total energy  :   -30.2766954 Eh     change       -0.1969071E-04 Eh
   gradient norm :     0.0018184 Eh/α   predicted    -0.1336826E-04 ( -32.11%)
   displ. norm   :     0.2473759 α      lambda       -0.3170106E-04
   maximum displ.:     0.1578125 α      in ANC's #4, #5, #6, ...

........................................................................
.............................. CYCLE   12 ..............................
........................................................................
   1    -30.7321374 -0.307321E+02  0.695E-02    3.40       0.0  T
   2    -30.7321381 -0.703364E-06  0.409E-02    3.40       1.0  T
   3    -30.7321370  0.113685E-05  0.971E-03    3.40       2.4  T
   4    -30.7321382 -0.122621E-05  0.382E-03    3.40       6.0  T
   5    -30.7321383 -0.134164E-06  0.130E-03    3.40      17.7  T
   6    -30.7321383 -0.885336E-08  0.505E-04    3.40      45.5  T
   7    -30.7321383 -0.293461E-08  0.207E-04    3.40     111.1  T
     SCC iter.                  ...        0 min,  0.009 sec
     gradient                   ...        0 min,  0.010 sec
 * total energy  :   -30.2767105 Eh     change       -0.1506299E-04 Eh
   gradient norm :     0.0045963 Eh/α   predicted    -0.1629167E-04 (   8.16%)
   displ. norm   :     0.0538677 α      lambda       -0.5364088E-04
   maximum displ.:     0.0470339 α      in ANC's #3, #4, #1, ...

........................................................................
.............................. CYCLE   13 ..............................
........................................................................
   1    -30.7332794 -0.307333E+02  0.234E-02    3.40       0.0  T
   2    -30.7332803 -0.851389E-06  0.130E-02    3.40       1.8  T
   3    -30.7332801  0.161219E-06  0.583E-03    3.40       3.9  T
   4    -30.7332803 -0.217751E-06  0.252E-03    3.40       9.1  T
   5    -30.7332804 -0.702126E-07  0.866E-04    3.40      26.5  T
   6    -30.7332804 -0.292291E-08  0.420E-04    3.40      54.6  T
     SCC iter.                  ...        0 min,  0.008 sec
     gradient                   ...        0 min,  0.010 sec
 * total energy  :   -30.2767352 Eh     change       -0.2469018E-04 Eh
   gradient norm :     0.0029175 Eh/α   predicted    -0.2689961E-04 (   8.95%)
   displ. norm   :     0.0549952 α      lambda       -0.1455615E-04
   maximum displ.:     0.0312540 α      in ANC's #4, #2, #5, ...

........................................................................
.............................. CYCLE   14 ..............................
........................................................................
   1    -30.7332030 -0.307332E+02  0.152E-02    3.40       0.0  T
   2    -30.7332031 -0.682460E-07  0.899E-03    3.40       2.6  T
   3    -30.7332030  0.789520E-07  0.261E-03    3.40       8.8  T
   4    -30.7332031 -0.896679E-07  0.859E-04    3.40      26.7  T
   5    -30.7332031 -0.761685E-08  0.301E-04    3.40      76.2  T
     SCC iter.                  ...        0 min,  0.007 sec
     gradient                   ...        0 min,  0.010 sec
 * total energy  :   -30.2767477 Eh     change       -0.1253484E-04 Eh
   gradient norm :     0.0019459 Eh/α   predicted    -0.7300655E-05 ( -41.76%)
   displ. norm   :     0.3076385 α      lambda       -0.3556144E-04
   maximum displ.:     0.1761956 α      in ANC's #4, #2, #5, ...

........................................................................
.............................. CYCLE   15 ..............................
........................................................................
   1    -30.7313801 -0.307314E+02  0.822E-02    3.40       0.0  T
   2    -30.7313828 -0.270088E-05  0.483E-02    3.40       1.0  T
   3    -30.7313821  0.711888E-06  0.101E-02    3.40       2.3  T
   4    -30.7313829 -0.811596E-06  0.443E-03    3.40       5.2  T
   5    -30.7313832 -0.239383E-06  0.152E-03    3.40      15.1  T
   6    -30.7313832  0.284061E-08  0.896E-04    3.40      25.6  T
   7    -30.7313832 -0.998815E-08  0.236E-04    3.40      97.1  T
     SCC iter.                  ...        0 min,  0.009 sec
     gradient                   ...        0 min,  0.010 sec
 * total energy  :   -30.2767213 Eh     change        0.2639967E-04 Eh
   gradient norm :     0.0065765 Eh/α   predicted    -0.1853679E-04 (-170.22%)
   displ. norm   :     0.1368609 α      lambda       -0.9471126E-04
   maximum displ.:     0.0839210 α      in ANC's #4, #5, #2, ...

........................................................................
.............................. CYCLE   16 ..............................
........................................................................
   1    -30.7331789 -0.307332E+02  0.401E-02    3.40       0.0  T
   2    -30.7331799 -0.966540E-06  0.232E-02    3.40       1.0  T
   3    -30.7331799 -0.213054E-07  0.455E-03    3.40       5.0  T
   4    -30.7331799 -0.372401E-07  0.155E-03    3.40      14.8  T
   5    -30.7331799 -0.143886E-07  0.820E-04    3.40      28.0  T
   6    -30.7331799 -0.374395E-08  0.242E-04    3.40      94.6  T
     SCC iter.                  ...        0 min,  0.008 sec
     gradient                   ...        0 min,  0.010 sec
 * total energy  :   -30.2767645 Eh     change       -0.4319829E-04 Eh
   gradient norm :     0.0018864 Eh/α   predicted    -0.4824719E-04 (  11.69%)
   displ. norm   :     0.0107013 α      lambda       -0.4666608E-05
   maximum displ.:     0.0057416 α      in ANC's #3, #13, #4, ...

........................................................................
.............................. CYCLE   17 ..............................
........................................................................
   1    -30.7331221 -0.307331E+02  0.104E-02    3.40       0.0  T
   2    -30.7331222 -0.111217E-06  0.609E-03    3.40       3.8  T
   3    -30.7331221  0.584770E-07  0.333E-03    3.40       6.9  T
   4    -30.7331222 -0.101132E-06  0.114E-03    3.40      20.1  T
   5    -30.7331223 -0.113339E-07  0.403E-04    3.40      57.0  T
   6    -30.7331223 -0.130749E-08  0.206E-04    3.40     111.4  T
     SCC iter.                  ...        0 min,  0.008 sec
     gradient                   ...        0 min,  0.010 sec
 * total energy  :   -30.2767683 Eh     change       -0.3752982E-05 Eh
   gradient norm :     0.0007314 Eh/α   predicted    -0.2335234E-05 ( -37.78%)
   displ. norm   :     0.0292136 α      lambda       -0.2230160E-05
   maximum displ.:     0.0156969 α      in ANC's #4, #2, #5, ...

   *** GEOMETRY OPTIMIZATION CONVERGED AFTER 17 ITERATIONS ***

------------------------------------------------------------------------
 total energy gain   :        -0.0044377 Eh       -2.7847 kcal/mol
 total RMSD          :         0.2513727 a0        0.1330 Å
 total power (kW/mol):        -0.6853676 (step)  -28.6896 (real)
------------------------------------------------------------------------

 ANCopt (total)                0 d,  0 h,  0 min,  0.406 sec
 optimizer setup                ...        0 min,  0.000 sec (  0.123%)
 model hessian                  ...        0 min,  0.003 sec (  0.797%)
 ANC generation                 ...        0 min,  0.001 sec (  0.189%)
 coordinate transformation      ...        0 min,  0.000 sec (  0.066%)
 single point calculation       ...        0 min,  0.394 sec ( 97.014%)
 optimization log               ...        0 min,  0.004 sec (  0.880%)
 hessian update                 ...        0 min,  0.000 sec (  0.065%)
 rational function              ...        0 min,  0.002 sec (  0.551%)

================
 final structure:
================
19
 xtb: 6.4.1 (afa7bdf)
C         2.49255562160843   -0.53950063860158   -0.66919728369414
C         1.33855371877642    0.08744316234907   -0.14249416992006
C        -0.03426428332598   -0.36067971362655   -0.21179260181547
C        -1.11851292910931    0.34895867470069    0.38107668577255
C        -2.32150688999675   -0.24439372669931    0.19615039902250
S        -2.15484749497698   -1.71228268161877   -0.72505609777918
C        -0.45504082884907   -1.49499543442961   -0.84183564899689
C        -3.66290105356439    0.20234173110079    0.65679237299653
N         1.67159302705475    1.21854230000958    0.46854080982770
N         2.98922619447126    1.32631569422198    0.34525692511448
C         3.52952654958107    0.29087315848295   -0.33252521271355
H         2.54342961113056   -1.46075761078927   -1.21057704693272
H        -0.97145502494374    1.26643206164430    0.92042512237745
H         0.12675813240963   -2.22210084359330   -1.37177391110530
H        -3.56190660514556    1.07318998885172    1.30064673965272
H        -4.29294261444160    0.46633139896730   -0.19362856216087
H        -4.16474378983213   -0.59167845888730    1.20960119909123
H         3.46416975791850    2.12242616215891    0.74011879128614
H         4.58230990123489    0.22353577575839   -0.51972751002312
 
 Bond Distances (Angstroems)
 ---------------------------
C1-C2=1.4150         C1-C11=1.3705        C1-H12=1.0698        C2-C1=1.4150         C2-C3=1.4458         C2-N9=1.3280         
C3-C2=1.4458         C3-C4=1.4250         C3-C7=1.3641         C4-C3=1.4250         C4-C5=1.3541         C4-H13=1.0744        
C5-C4=1.3541         C5-S6=1.7410         C5-C8=1.4870         S6-C5=1.7410         S6-C7=1.7176         C7-C3=1.3641         
C7-S6=1.7176         C7-H14=1.0715        C8-C5=1.4870         C8-H15=1.0877        C8-H16=1.0908        C8-H17=1.0899        
N9-C2=1.3280         N9-N10=1.3278        N10-N9=1.3278        N10-C11=1.3504       N10-H18=1.0076       C11-C1=1.3705        
C11-N10=1.3504       C11-H19=1.0714       H12-C1=1.0698        H13-C4=1.0744        H14-C7=1.0715        H15-C8=1.0877        
H16-C8=1.0908        H17-C8=1.0899        H18-N10=1.0076       H19-C11=1.0714       
 C  H  Rav=1.0793 sigma=0.0089  Rmin=1.0698  Rmax=1.0908     7
 C  C  Rav=1.4088 sigma=0.0451  Rmin=1.3541  Rmax=1.4870     7
 N  H  Rav=1.0076 sigma=0.0000  Rmin=1.0076  Rmax=1.0076     1
 N  C  Rav=1.3392 sigma=0.0112  Rmin=1.3280  Rmax=1.3504     2
 N  N  Rav=1.3278 sigma=0.0000  Rmin=1.3278  Rmax=1.3278     1
 S  C  Rav=1.7293 sigma=0.0117  Rmin=1.7176  Rmax=1.7410     2
 
 selected bond angles (degree)
 --------------------
C11-C1-C2=104.90               H12-C1-C2=127.50               H12-C1-C11=127.60              C3-C2-C1=128.26                
N9-C2-C1=110.13                N9-C2-C3=121.61                C4-C3-C2=123.24                C7-C3-C2=124.95                
C7-C3-C4=111.81                C5-C4-C3=113.64                H13-C4-C3=122.00               H13-C4-C5=124.36               
S6-C5-C4=110.90                C8-C5-C4=128.87                C8-C5-S6=120.24                C7-S6-C5= 91.38                
S6-C7-C3=112.28                H14-C7-C3=128.70               H14-C7-S6=119.02               H15-C8-C5=109.89               
H16-C8-C5=110.62               H16-C8-H15=108.74              H17-C8-C5=110.71               H17-C8-H15=109.01              
H17-C8-H16=107.81              N10-N9-C2=105.98               C11-N10-N9=112.42              H18-N10-N9=119.70              
H18-N10-C11=127.87             
 
 selected dihedral angles (degree)
 ---------------------------------
C3-C2-C1-C11=179.91           C3-C2-C1-H12=359.85           N9-C2-C1-C11=  0.00           N9-C2-C1-H12=179.91           
C4-C3-C2-C1=178.86            C4-C3-C2-N9=358.78            C7-C3-C2-C1=358.78            C7-C3-C2-N9=178.71            
C5-C4-C3-C2=179.92            C5-C4-C3-C7=  0.00            H13-C4-C3-C2=359.87           H13-C4-C3-C7=179.93           
S6-C5-C4-C3=  0.00            S6-C5-C4-H13=180.03           C8-C5-C4-C3=180.40            C8-C5-C4-H13=  0.46           
C7-S6-C5-C4=  0.04            C7-S6-C5-C8=179.65            S6-C7-C3-C2=180.11            S6-C7-C3-C4=  0.04            
H14-C7-C3-C2=  0.04           H14-C7-C3-C4=179.97           C3-C7-S6-C5=359.96            H14-C7-S6-C5=180.02           
H15-C8-C5-C4=353.59           H15-C8-C5-S6=174.05           H16-C8-C5-C4=113.67           H16-C8-C5-S6=294.13           
H17-C8-C5-C4=233.11           H17-C8-C5-S6= 53.57           N10-N9-C2-C1=  0.03           N10-N9-C2-C3=180.09           
C11-N10-N9-C2=359.97          H18-N10-N9-C2=179.93          
           -------------------------------------------------
          |                Final Singlepoint                |
           -------------------------------------------------

          ...................................................
          :                      SETUP                      :
          :.................................................:
          :  # basis functions                  58          :
          :  # atomic orbitals                  57          :
          :  # shells                           31          :
          :  # electrons                        56          :
          :  max. iterations                   250          :
          :  Hamiltonian                  GFN2-xTB          :
          :  restarted?                      false          :
          :  GBSA solvation                  false          :
          :  PC potential                    false          :
          :  electronic temp.          300.0000000     K    :
          :  accuracy                    1.0000000          :
          :  -> integral cutoff          0.2500000E+02      :
          :  -> integral neglect         0.1000000E-07      :
          :  -> SCF convergence          0.1000000E-05 Eh   :
          :  -> wf. convergence          0.1000000E-03 e    :
          :  Broyden damping             0.4000000          :
          ...................................................

 iter      E             dE          RMSdq      gap      omega  full diag
   1    -30.7331223 -0.307331E+02  0.853E-05    3.40       0.0  T
   2    -30.7331223 -0.123137E-10  0.611E-05    3.40     375.7  T
   3    -30.7331223 -0.128182E-10  0.423E-05    3.40     542.2  T

   *** convergence criteria satisfied after 3 iterations ***

         #    Occupation            Energy/Eh            Energy/eV
      -------------------------------------------------------------
         1        2.0000           -0.7196167             -19.5818
       ...           ...                  ...                  ...
        22        2.0000           -0.4393421             -11.9551
        23        2.0000           -0.4355782             -11.8527
        24        2.0000           -0.4176995             -11.3662
        25        2.0000           -0.4024412             -10.9510
        26        2.0000           -0.3888312             -10.5806
        27        2.0000           -0.3818207             -10.3899
        28        2.0000           -0.3661367              -9.9631 (HOMO)
        29                         -0.2412045              -6.5635 (LUMO)
        30                         -0.2102782              -5.7220
        31                         -0.1931033              -5.2546
        32                         -0.1810159              -4.9257
        33                         -0.1080651              -2.9406
       ...                                ...                  ...
        57                          0.7381299              20.0855
      -------------------------------------------------------------
                  HL-Gap            0.1249322 Eh            3.3996 eV
             Fermi-level           -0.3036706 Eh           -8.2633 eV
 
 localization/xTB-IFF output generation
 averaging CT terms over            1  occ. levels
 averaging CT terms over            1  virt. levels
 dipole moment from electron density (au)
     X       Y       Z   
   0.8629   0.4433   0.1402  total (Debye):    2.491
cpu  time for init local    0.00 s
wall time for init local    0.01 s
 doing rotations ...
 initialization of trafo matrix to unity

 converged in     32 iterations, threshold :   0.97759103D-06
 doing transformations ...
 lmo centers(Z=2) and atoms on file <lmocent.coord>
 LMO Fii/eV  ncent    charge center   contributions...
    1 sigma -17.08   1.96   4.46268   2.43246   0.77810   10N :  0.56    9N :  0.45
    2 sigma -16.55   1.92   6.18905   1.66251   0.08785   10N :  0.58   11C :  0.43
    3 sigma -15.99   1.95   6.20283   3.41456   1.10144   10N :  0.58   18H :  0.42
    4 sigma -14.87   1.93  -2.48882  -3.10530  -1.52235    6S :  0.58    7C :  0.42
    5 sigma -14.83   1.94  -4.32214  -1.89255  -0.51268    6S :  0.59    5C :  0.41
    6 sigma -14.68   1.97  -5.65142  -0.05030   0.80120    5C :  0.51    8C :  0.50
    7 sigma -14.61   2.02   1.22747  -0.27279  -0.34172    2C :  0.50    3C :  0.50
    8 sigma -14.50   2.00   3.56999  -0.52232  -0.81508    1C :  0.51    2C :  0.49
    9 sigma -14.47   2.01   7.98409   0.46686  -0.86136   11C :  0.51   19H :  0.49
   10 sigma -14.46   2.00  -1.04310   0.02926   0.17796    3C :  0.50    4C :  0.50
   11 sigma -14.10   2.01  -0.14141  -3.73201  -2.25058    7C :  0.51   14H :  0.49
   12 LP    -13.90   1.18  -4.14549  -4.98224   0.41241    6S :  0.92
   13 sigma -13.86   2.01  -7.65286   0.69742   0.18450    8C :  0.52   16H :  0.48
   14 sigma -13.85   2.00  -7.50333  -0.60203   1.91219    8C :  0.52   17H :  0.48
   15 LP    -13.85   1.19  -4.73167  -2.48550  -3.65409    6S :  0.92
   16 sigma -13.84   1.98  -6.78078   1.44931   2.02931    8C :  0.52   15H :  0.48
   17 sigma -13.80   2.01   4.76926  -2.17382  -1.94248    1C :  0.51   12H :  0.49
   18 pi    -13.76   2.16   2.85262   1.48856  -0.08234    9N :  0.52    2C :  0.44
   19 pi    -13.76   2.16   2.96489   1.03023   0.70940    9N :  0.52    2C :  0.44
   20 sigma -13.54   2.02  -1.94748   1.78162   1.38230    4C :  0.52   13H :  0.48
   21 delpi -13.42   2.20   5.46858   0.01201  -1.35654    1C :  0.49   11C :  0.46
   22 delpi -13.42   2.21   5.59066  -0.48833  -0.49550    1C :  0.49   11C :  0.46
   23 pi    -13.32   1.61   5.43650   2.16558   0.48124   10N :  0.78   11C :  0.10    9N :  0.08
   24 pi    -13.29   2.19  -0.41716  -1.94029  -0.51259    7C :  0.48    3C :  0.48
   25 pi    -13.28   2.19  -0.54279  -1.41048  -1.37856    7C :  0.48    3C :  0.48
   26 pi    -13.26   2.14  -3.10949  -0.21922   0.94465    4C :  0.49    5C :  0.48
   27 pi    -13.26   2.14  -3.23775   0.31885   0.06377    4C :  0.49    5C :  0.48
   28 LP    -11.62   1.02   2.13971   3.58421   1.77384    9N :  0.99
 starting deloc pi regularization ...
 thr    2.20000000000000      # pi deloc LMO           5
 files:
 coordprot.0/xtbscreen.xyz/xtblmoinfo/lmocent.coord
 with protonation site input, xtbdock and
 LMO center info written
 

 SCC (total)                   0 d,  0 h,  0 min,  0.034 sec
 SCC setup                      ...        0 min,  0.000 sec (  0.508%)
 Dispersion                     ...        0 min,  0.000 sec (  0.386%)
 classical contributions        ...        0 min,  0.000 sec (  0.120%)
 integral evaluation            ...        0 min,  0.005 sec ( 13.344%)
 iterations                     ...        0 min,  0.004 sec ( 13.157%)
 molecular gradient             ...        0 min,  0.010 sec ( 29.864%)
 printout                       ...        0 min,  0.015 sec ( 42.486%)

         :::::::::::::::::::::::::::::::::::::::::::::::::::::
         ::                     SUMMARY                     ::
         :::::::::::::::::::::::::::::::::::::::::::::::::::::
         :: total energy             -30.276768268071 Eh    ::
         :: gradient norm              0.000733124339 Eh/a0 ::
         :: HOMO-LUMO gap              3.399578473996 eV    ::
         ::.................................................::
         :: SCC energy               -30.733122257476 Eh    ::
         :: -> isotropic ES            0.011030909841 Eh    ::
         :: -> anisotropic ES          0.003275098463 Eh    ::
         :: -> anisotropic XC          0.020648045260 Eh    ::
         :: -> dispersion             -0.017875487211 Eh    ::
         :: repulsion energy           0.456398139597 Eh    ::
         :: add. restraining           0.000000000000 Eh    ::
         :: total charge               0.000000000000 e     ::
         :::::::::::::::::::::::::::::::::::::::::::::::::::::

           -------------------------------------------------
          |                Property Printout                |
           -------------------------------------------------

    * Orbital Energies and Occupations

         #    Occupation            Energy/Eh            Energy/eV
      -------------------------------------------------------------
         1        2.0000           -0.7196167             -19.5818
       ...           ...                  ...                  ...
        16        2.0000           -0.4916551             -13.3786
        17        2.0000           -0.4789828             -13.0338
        18        2.0000           -0.4756104             -12.9420
        19        2.0000           -0.4657968             -12.6750
        20        2.0000           -0.4587460             -12.4831
        21        2.0000           -0.4525684             -12.3150
        22        2.0000           -0.4393421             -11.9551
        23        2.0000           -0.4355782             -11.8527
        24        2.0000           -0.4176995             -11.3662
        25        2.0000           -0.4024412             -10.9510
        26        2.0000           -0.3888312             -10.5806
        27        2.0000           -0.3818207             -10.3899
        28        2.0000           -0.3661367              -9.9631 (HOMO)
        29                         -0.2412045              -6.5635 (LUMO)
        30                         -0.2102782              -5.7220
        31                         -0.1931033              -5.2546
        32                         -0.1810159              -4.9257
        33                         -0.1080651              -2.9406
        34                         -0.0997562              -2.7145
        35                          0.0031677               0.0862
        36                          0.0197975               0.5387
        37                          0.0343107               0.9336
        38                          0.0448702               1.2210
        39                          0.1006940               2.7400
       ...                                ...                  ...
        57                          0.7381299              20.0855
      -------------------------------------------------------------
                  HL-Gap            0.1249322 Eh            3.3996 eV
             Fermi-level           -0.3036706 Eh           -8.2633 eV

     #   Z          covCN         q      C6AA      α(0)
     1   6 C        3.025    -0.075    29.840     8.960
     2   6 C        3.164     0.067    26.172     8.361
     3   6 C        3.158    -0.006    27.850     8.628
     4   6 C        3.121    -0.060    29.296     8.864
     5   6 C        2.979     0.027    27.388     8.584
     6  16 S        2.326    -0.057   143.409    20.155
     7   6 C        2.941    -0.029    28.725     8.790
     8   6 C        3.776    -0.107    22.569     6.769
     9   7 N        1.998    -0.227    26.757     7.672
    10   7 N        2.998     0.009    21.098     6.822
    11   6 C        3.007    -0.006    28.159     8.705
    12   1 H        0.927     0.025     2.652     2.546
    13   1 H        0.926     0.050     2.324     2.384
    14   1 H        0.926     0.039     2.467     2.456
    15   1 H        0.925     0.050     2.316     2.380
    16   1 H        0.924     0.053     2.282     2.362
    17   1 H        0.925     0.053     2.283     2.363
    18   1 H        0.860     0.160     1.332     1.808
    19   1 H        0.926     0.033     2.549     2.497

 Mol. C6AA /au·bohr⁶  :       5712.043620
 Mol. C8AA /au·bohr⁸  :     157110.176862
 Mol. α(0) /au        :        121.106487


Wiberg/Mayer (AO) data.
largest (>0.10) Wiberg bond orders for each atom

 ---------------------------------------------------------------------------
     #   Z sym  total        # sym  WBO       # sym  WBO       # sym  WBO
 ---------------------------------------------------------------------------
     1   6 C    3.980 --    11 C    1.539     2 C    1.299    12 H    0.974
     2   6 C    3.977 --     9 N    1.455     1 C    1.299     3 C    1.077
     3   6 C    3.987 --     7 C    1.560     4 C    1.210     2 C    1.077
     4   6 C    3.985 --     5 C    1.638     3 C    1.210    13 H    0.962
     5   6 C    3.951 --     4 C    1.638     6 S    1.138     8 C    1.037
                             7 C    0.104
     6  16 S    2.589 --     7 C    1.187     5 C    1.138
     7   6 C    3.943 --     3 C    1.560     6 S    1.187    14 H    0.970
                             5 C    0.104
     8   6 C    3.996 --     5 C    1.037    15 H    0.980    17 H    0.973
                            16 H    0.969
     9   7 N    2.965 --     2 C    1.455    10 N    1.216    11 C    0.160
    10   7 N    3.621 --    11 C    1.270     9 N    1.216    18 H    0.944
    11   6 C    3.958 --     1 C    1.539    10 N    1.270    19 H    0.969
                             9 N    0.160
    12   1 H    0.999 --     1 C    0.974
    13   1 H    0.998 --     4 C    0.962
    14   1 H    0.998 --     7 C    0.970
    15   1 H    0.997 --     8 C    0.980
    16   1 H    0.997 --     8 C    0.969
    17   1 H    0.997 --     8 C    0.973
    18   1 H    0.974 --    10 N    0.944
    19   1 H    0.998 --    11 C    0.969
 ---------------------------------------------------------------------------

Topologies differ in total number of bonds
Writing topology from bond orders to xtbtopo.mol

molecular dipole:
                 x           y           z       tot (Debye)
 q only:        0.298       0.394       0.192
   full:        0.863       0.443       0.140       2.491
molecular quadrupole (traceless):
                xx          xy          yy          xz          yz          zz
 q only:        8.430       2.370      -3.346      -0.700       1.139      -5.084
  q+dip:       11.654       2.018      -4.415      -1.802       2.365      -7.239
   full:       11.112       1.503      -4.991      -1.755       0.927      -6.122

           -------------------------------------------------
          |                Geometry Summary                 |
           -------------------------------------------------

      molecular mass/u    :      164.2276070
   center of mass at/Å    :       -0.0541080      -0.2369416      -0.1372751
  moments of inertia/u·Å² :        0.1789919E+03   0.9451972E+03   0.1121029E+04
rotational constants/cm⁻¹ :        0.9418098E-01   0.1783504E-01   0.1503764E-01

 * 20 selected distances

     #   Z          #   Z                                           value/Å
     1   6 C        2   6 C                                       1.4149894
     2   6 C        3   6 C                                       1.4457682
     3   6 C        4   6 C                                       1.4250178
     4   6 C        5   6 C                                       1.3540529
     5   6 C        6  16 S                                       1.7410039 (max)
     3   6 C        7   6 C                                       1.3640672
     6  16 S        7   6 C                                       1.7176129
     5   6 C        8   6 C                                       1.4869774
     2   6 C        9   7 N                                       1.3280302
     9   7 N       10   7 N                                       1.3277693
     1   6 C       11   6 C                                       1.3704661
    10   7 N       11   6 C                                       1.3503534
     1   6 C       12   1 H                                       1.0697638
     4   6 C       13   1 H                                       1.0743743
     7   6 C       14   1 H                                       1.0714508
     8   6 C       15   1 H                                       1.0877155
     8   6 C       16   1 H                                       1.0908064
     8   6 C       17   1 H                                       1.0899137
    10   7 N       18   1 H                                       1.0076106 (min)
    11   6 C       19   1 H                                       1.0714158

 * 6 distinct bonds (by element types)

   Z      Z             #   av. dist./Å        max./Å        min./Å
   1 H    6 C           7     1.0793486     1.0908064     1.0697638
   6 C    6 C           7     1.4087627     1.4869774     1.3540529
   1 H    7 N           1     1.0076106     1.0076106     1.0076106
   6 C    7 N           2     1.3391918     1.3503534     1.3280302
   7 N    7 N           1     1.3277693     1.3277693     1.3277693
   6 C   16 S           2     1.7293084     1.7410039     1.7176129


optimized geometry written to: xtbopt.xyz


           -------------------------------------------------
          | TOTAL ENERGY              -30.276768268071 Eh   |
          | GRADIENT NORM               0.000733124339 Eh/α |
          | HOMO-LUMO GAP               3.399578473996 eV   |
           -------------------------------------------------

------------------------------------------------------------------------
 * finished run on 2022/11/02 at 18:13:34.536     
------------------------------------------------------------------------
 total:
 * wall-time:     0 d,  0 h,  0 min,  0.577 sec
 *  cpu-time:     0 d,  0 h,  0 min,  0.513 sec
 * ratio c/w:     0.888 speedup
 SCF:
 * wall-time:     0 d,  0 h,  0 min,  0.055 sec
 *  cpu-time:     0 d,  0 h,  0 min,  0.045 sec
 * ratio c/w:     0.814 speedup
 ANC optimizer:
 * wall-time:     0 d,  0 h,  0 min,  0.462 sec
 *  cpu-time:     0 d,  0 h,  0 min,  0.438 sec
 * ratio c/w:     0.948 speedup

