19
 energy: -30.276768268071 gnorm: 0.000733124339 xtb: 6.4.1 (afa7bdf)
C         2.49255562160843   -0.53950063860158   -0.66919728369414
C         1.33855371877642    0.08744316234907   -0.14249416992006
C        -0.03426428332598   -0.36067971362655   -0.21179260181547
C        -1.11851292910931    0.34895867470069    0.38107668577255
C        -2.32150688999675   -0.24439372669931    0.19615039902250
S        -2.15484749497698   -1.71228268161877   -0.72505609777918
C        -0.45504082884907   -1.49499543442961   -0.84183564899689
C        -3.66290105356439    0.20234173110079    0.65679237299653
N         1.67159302705475    1.21854230000958    0.46854080982770
N         2.98922619447126    1.32631569422198    0.34525692511448
C         3.52952654958107    0.29087315848295   -0.33252521271355
H         2.54342961113056   -1.46075761078927   -1.21057704693272
H        -0.97145502494374    1.26643206164430    0.92042512237745
H         0.12675813240963   -2.22210084359330   -1.37177391110530
H        -3.56190660514556    1.07318998885172    1.30064673965272
H        -4.29294261444160    0.46633139896730   -0.19362856216087
H        -4.16474378983213   -0.59167845888730    1.20960119909123
H         3.46416975791850    2.12242616215891    0.74011879128614
H         4.58230990123489    0.22353577575839   -0.51972751002312
