      -----------------------------------------------------------      
     |                   =====================                   |     
     |                           x T B                           |     
     |                   =====================                   |     
     |                         S. Grimme                         |     
     |          Mulliken Center for Theoretical Chemistry        |     
     |                    University of Bonn                     |     
      -----------------------------------------------------------      

   * xtb version 6.4.1 (afa7bdf) compiled by 'ehlert@majestix' on 2021-06-10

   xtb is free software: you can redistribute it and/or modify it under
   the terms of the GNU Lesser General Public License as published by
   the Free Software Foundation, either version 3 of the License, or
   (at your option) any later version.
   
   xtb is distributed in the hope that it will be useful,
   but WITHOUT ANY WARRANTY; without even the implied warranty of
   MERCHANTABILITY or FITNESS FOR A PARTICULAR PURPOSE.  See the
   GNU Lesser General Public License for more details.
   
   Cite this work as:
   * C. Bannwarth, E. Caldeweyher, S. Ehlert, A. Hansen, P. Pracht,
     J. Seibert, S. Spicher, S. Grimme, WIREs Comput. Mol. Sci., 2020, 11,
     e01493. DOI: 10.1002/wcms.1493
   
   for GFN2-xTB:
   * C. Bannwarth, S. Ehlert and S. Grimme., J. Chem. Theory Comput., 2019,
     15, 1652-1671. DOI: 10.1021/acs.jctc.8b01176
   for GFN1-xTB:
   * S. Grimme, C. Bannwarth, P. Shushkov, J. Chem. Theory Comput., 2017,
     13, 1989-2009. DOI: 10.1021/acs.jctc.7b00118
   for GFN0-xTB:
   * P. Pracht, E. Caldeweyher, S. Ehlert, S. Grimme, ChemRxiv, 2019, preprint.
     DOI: 10.26434/chemrxiv.8326202.v1
   for GFN-FF:
   * S. Spicher and S. Grimme, Angew. Chem. Int. Ed., 2020, 59, 15665-15673.
     DOI: 10.1002/anie.202004239
   
   for DFT-D4:
   * E. Caldeweyher, C. Bannwarth and S. Grimme, J. Chem. Phys., 2017,
     147, 034112. DOI: 10.1063/1.4993215
   * E. Caldeweyher, S. Ehlert, A. Hansen, H. Neugebauer, S. Spicher,
     C. Bannwarth and S. Grimme, J. Chem. Phys., 2019, 150, 154122.
     DOI: 10.1063/1.5090222
   * E. Caldeweyher, J.-M. Mewes, S. Ehlert and S. Grimme, Phys. Chem. Chem. Phys.
     2020, 22, 8499-8512. DOI: 10.1039/D0CP00502A
   
   for sTDA-xTB:
   * S. Grimme and C. Bannwarth, J. Chem. Phys., 2016, 145, 054103.
     DOI: 10.1063/1.4959605
   
   in the mass-spec context:
   * V. Asgeirsson, C. Bauer and S. Grimme, Chem. Sci., 2017, 8, 4879.
     DOI: 10.1039/c7sc00601b
   * J. Koopman and S. Grimme, ACS Omega 2019, 4, 12, 15120-15133.
     DOI: 10.1021/acsomega.9b02011
   
   for metadynamics refer to:
   * S. Grimme, J. Chem. Theory Comput., 2019, 155, 2847-2862
     DOI: 10.1021/acs.jctc.9b00143
   
   for SPH calculations refer to:
   * S. Spicher and S. Grimme, J. Chem. Theory Comput., 2021, 17, 1701-1714
     DOI: 10.1021/acs.jctc.0c01306
   
   with help from (in alphabetical order)
   P. Atkinson, C. Bannwarth, F. Bohle, G. Brandenburg, E. Caldeweyher
   M. Checinski, S. Dohm, S. Ehlert, S. Ehrlich, I. Gerasimov, J. Koopman
   C. Lavigne, S. Lehtola, F. März, M. Müller, F. Musil, H. Neugebauer
   J. Pisarek, C. Plett, P. Pracht, J. Seibert, P. Shushkov, S. Spicher
   M. Stahn, M. Steiner, T. Strunk, J. Stückrath, T. Rose, and J. Unsleber
   
 * started run on 2022/11/02 at 18:13:40.724     

           -------------------------------------------------
          |                Calculation Setup                |
           -------------------------------------------------

          program call               : /lustre/hpc/kemi/borup/pKalculator/dep/xtb-6.4.1/bin/xtb --gfn 2 /lustre/hpc/kemi/borup/pKalculator/calc/test#-1=7/conf03/test#-1=7_conf03_gfn2.xyz --opt --lmo --chrg -1 --uhf 0
          hostname                   : fend01.cluster
          coordinate file            : /lustre/hpc/kemi/borup/pKalculator/calc/test#-1=7/conf03/test#-1=7_conf03_gfn2.xyz
          omp threads                :                     1
          number of atoms            :                    18
          number of electrons        :                    56
          charge                     :                    -1
          spin                       :                   0.0
          first test random number   :      0.59473501590661

   ID    Z sym.   atoms
    1    6 C      1-5, 8-10
    2    7 N      6, 7
    3   16 S      11
    4    1 H      12-18

           -------------------------------------------------
          |                 G F N 2 - x T B                 |
           -------------------------------------------------

        Reference                      10.1021/acs.jctc.8b01176
      * Hamiltonian:
        H0-scaling (s, p, d)           1.850000    2.230000    2.230000
        zeta-weighting                 0.500000
      * Dispersion:
        s8                             2.700000
        a1                             0.520000
        a2                             5.000000
        s9                             5.000000
      * Repulsion:
        kExp                           1.500000    1.000000
        rExp                           1.000000
      * Coulomb:
        alpha                          2.000000
        third order                    shell-resolved
        anisotropic                    true
        a3                             3.000000
        a5                             4.000000
        cn-shift                       1.200000
        cn-exp                         4.000000
        max-rad                        5.000000


          ...................................................
          :                      SETUP                      :
          :.................................................:
          :  # basis functions                  57          :
          :  # atomic orbitals                  56          :
          :  # shells                           30          :
          :  # electrons                        56          :
          :  max. iterations                   250          :
          :  Hamiltonian                  GFN2-xTB          :
          :  restarted?                      false          :
          :  GBSA solvation                  false          :
          :  PC potential                    false          :
          :  electronic temp.          300.0000000     K    :
          :  accuracy                    1.0000000          :
          :  -> integral cutoff          0.2500000E+02      :
          :  -> integral neglect         0.1000000E-07      :
          :  -> SCF convergence          0.1000000E-05 Eh   :
          :  -> wf. convergence          0.1000000E-03 e    :
          :  Broyden damping             0.4000000          :
          ...................................................

 iter      E             dE          RMSdq      gap      omega  full diag
   1    -30.1515785 -0.301516E+02  0.424E+00    3.07       0.0  T
   2    -30.2272280 -0.756494E-01  0.383E+00    0.60       1.0  T
   3    -30.3081373 -0.809094E-01  0.188E+00    1.43       1.0  T
   4    -30.3052967  0.284067E-02  0.885E-01    1.14       1.0  T
   5    -30.3100336 -0.473692E-02  0.324E-01    1.20       1.0  T
   6    -30.3109549 -0.921305E-03  0.120E-01    1.31       1.0  T
   7    -30.3110287 -0.738315E-04  0.480E-02    1.29       1.0  T
   8    -30.3110336 -0.482618E-05  0.244E-02    1.29       1.0  T
   9    -30.3110372 -0.362928E-05  0.119E-02    1.29       2.0  T
  10    -30.3110376 -0.425080E-06  0.378E-03    1.29       6.2  T
  11    -30.3110377 -0.937950E-07  0.207E-03    1.29      11.4  T
  12    -30.3110377 -0.102479E-07  0.818E-04    1.29      28.8  T
  13    -30.3110377 -0.520290E-08  0.251E-04    1.29      94.0  T

   *** convergence criteria satisfied after 13 iterations ***

         #    Occupation            Energy/Eh            Energy/eV
      -------------------------------------------------------------
         1        2.0000           -0.5399134             -14.6918
       ...           ...                  ...                  ...
        22        2.0000           -0.2576405              -7.0108
        23        2.0000           -0.2448745              -6.6634
        24        2.0000           -0.2387869              -6.4977
        25        2.0000           -0.2357388              -6.4148
        26        2.0000           -0.1869134              -5.0862
        27        2.0000           -0.1619383              -4.4066
        28        2.0000           -0.1156038              -3.1457 (HOMO)
        29                         -0.0680671              -1.8522 (LUMO)
        30                         -0.0246384              -0.6704
        31                         -0.0153784              -0.4185
        32                         -0.0023703              -0.0645
        33                          0.0851350               2.3166
       ...                                ...                  ...
        56                          0.9120343              24.8177
      -------------------------------------------------------------
                  HL-Gap            0.0475367 Eh            1.2935 eV
             Fermi-level           -0.0918354 Eh           -2.4990 eV
 
 localization/xTB-IFF output generation
 averaging CT terms over            1  occ. levels
 averaging CT terms over            1  virt. levels
 dipole moment from electron density (au)
     X       Y       Z   
   1.7357   1.3240  -1.9280  total (Debye):    7.403
cpu  time for init local    0.00 s
wall time for init local    0.00 s
 doing rotations ...
 initialization of trafo matrix to unity

 converged in     37 iterations, threshold :   0.99724408D-06
 doing transformations ...
 lmo centers(Z=2) and atoms on file <lmocent.coord>
 LMO Fii/eV  ncent    charge center   contributions...
    1 sigma -13.03   1.95   4.65821   1.46376  -1.81535    7N :  0.57    6N :  0.44
    2 sigma -12.55   1.92   6.32257   1.20398  -0.66115    7N :  0.58    8C :  0.43
    3 sigma -12.35   1.97   6.50378   2.08014  -2.52673    7N :  0.55   16H :  0.45
    4 sigma -10.99   2.01   8.03271   0.71199   1.03423   17H :  0.51    8C :  0.49
    5 sigma -10.12   1.99  -7.34018   0.83323  -1.34139   14H :  0.51    1C :  0.49
    6 sigma -10.11   1.98  -6.73544  -0.76321  -2.79110   13H :  0.51    1C :  0.50
    7 sigma -10.09   1.99   3.56799  -0.03918   1.11698    9C :  0.52    5C :  0.48
    8 sigma -10.08   1.96  -5.73644  -0.61434  -0.78887    1C :  0.54    2C :  0.47
    9 sigma -10.05   1.97  -7.84441  -1.30602  -0.92697   12H :  0.51    1C :  0.50
   10 sigma  -9.74   2.01   4.59223  -0.76708   3.08427   18H :  0.50    9C :  0.50
   11 pi     -9.47   2.15   5.49412   0.69106   1.42886    9C :  0.49    8C :  0.48
   12 pi     -9.47   2.15   5.64027  -0.22429   1.01397    9C :  0.49    8C :  0.48
   13 pi     -9.39   2.10   2.99511   1.23702  -0.76504    6N :  0.56    5C :  0.40
   14 pi     -9.38   2.10   3.12886   0.40176  -1.14404    6N :  0.56    5C :  0.40
   15 sigma  -9.38   1.96  -4.42616  -1.48663   1.40816   11S :  0.57    2C :  0.43
   16 sigma  -9.24   2.00   1.28615  -0.10925   0.46272    5C :  0.55    4C :  0.45
   17 pi     -9.14   1.51   5.66670   1.41596  -1.33646    7N :  0.81    8C :  0.10
   18 sigma  -8.84   2.01  -2.00803   0.68011  -2.17871   15H :  0.52    3C :  0.47
   19 sigma  -8.79   1.98  -1.13084  -0.17106  -0.18393    3C :  0.54    4C :  0.47
   20 LP     -8.45   1.14  -4.25059  -4.76854   2.48349   11S :  0.93
   21 LP     -8.43   1.15  -4.93790  -0.36674   4.63058   11S :  0.93
   22 sigma  -8.42   1.81  -2.72421  -1.93534   2.87794   11S :  0.66   10C :  0.33
   23 pi     -8.04   2.07  -3.27090  -0.85359  -0.71740    2C :  0.51    3C :  0.47
   24 pi     -8.04   2.07  -3.42255   0.08965  -0.25138    2C :  0.51    3C :  0.47
   25 LP     -7.60   1.02   2.48739   1.86500  -3.46141    6N :  0.99
   26 delpi  -7.14   2.27  -0.51605  -0.44919   1.67632    4C :  0.55   10C :  0.37
   27 delpi  -7.08   2.29  -0.37329  -1.29655   1.23956    4C :  0.55   10C :  0.36
   28 LP     -4.52   1.11  -0.21554  -2.35858   4.54615   10C :  0.95
 starting deloc pi regularization ...
 thr    2.20000000000000      # pi deloc LMO           5
 files:
 coordprot.0/xtbscreen.xyz/xtblmoinfo/lmocent.coord
 with protonation site input, xtbdock and
 LMO center info written
 

 SCC (total)                   0 d,  0 h,  0 min,  0.050 sec
 SCC setup                      ...        0 min,  0.000 sec (  0.657%)
 Dispersion                     ...        0 min,  0.000 sec (  0.481%)
 classical contributions        ...        0 min,  0.000 sec (  0.127%)
 integral evaluation            ...        0 min,  0.005 sec (  9.353%)
 iterations                     ...        0 min,  0.016 sec ( 32.089%)
 molecular gradient             ...        0 min,  0.010 sec ( 19.403%)
 printout                       ...        0 min,  0.019 sec ( 37.780%)

         :::::::::::::::::::::::::::::::::::::::::::::::::::::
         ::                     SUMMARY                     ::
         :::::::::::::::::::::::::::::::::::::::::::::::::::::
         :: total energy             -29.892051023761 Eh    ::
         :: gradient norm              0.123298993784 Eh/a0 ::
         :: HOMO-LUMO gap              1.293539691106 eV    ::
         ::.................................................::
         :: SCC energy               -30.311037720563 Eh    ::
         :: -> isotropic ES            0.112201815498 Eh    ::
         :: -> anisotropic ES          0.009779818983 Eh    ::
         :: -> anisotropic XC          0.018130860317 Eh    ::
         :: -> dispersion             -0.018303839348 Eh    ::
         :: repulsion energy           0.419041790715 Eh    ::
         :: add. restraining           0.000000000000 Eh    ::
         :: total charge              -1.000000000000 e     ::
         :::::::::::::::::::::::::::::::::::::::::::::::::::::

      ----------------------------------------------------------- 
     |                   =====================                   |
     |                        A N C O P T                        |
     |                   =====================                   |
     |               Approximate Normal Coordinate               |
     |                Rational Function Optimizer                |
      ----------------------------------------------------------- 

          ...................................................
          :                      SETUP                      :
          :.................................................:
          :   optimization level            normal          :
          :   max. optcycles                   200          :
          :   ANC micro-cycles                  20          :
          :   degrees of freedom                48          :
          :.................................................:
          :   RF solver                   davidson          :
          :   write xtbopt.log                true          :
          :   linear?                        false          :
          :   energy convergence         0.5000000E-05 Eh   :
          :   grad. convergence          0.1000000E-02 Eh/α :
          :   maximium RF displ.         1.0000000          :
          :   Hlow (freq-cutoff)         0.1000000E-01      :
          :   Hmax (freq-cutoff)         5.0000000          :
          :   S6 in model hess.         20.0000000          :
          ...................................................

generating ANC from model Hessian ...
Using Lindh-Hessian (1995)
 Shifting diagonal of input Hessian by   8.261964779650551E-003
 Lowest  eigenvalues of input Hessian
    0.000000    0.000000    0.000000    0.000000    0.000000    0.000000
    0.010000    0.011679    0.012887    0.017507    0.018319    0.030068
    0.030623    0.037995    0.039984    0.043420    0.067374    0.072953
 Highest eigenvalues
    1.754372    1.761512    1.847213    1.941237    1.982774    2.061601
 

........................................................................
.............................. CYCLE    1 ..............................
........................................................................
   1    -30.3110377 -0.303110E+02  0.973E-05    1.29       0.0  T
   2    -30.3110377 -0.333102E-10  0.585E-05    1.29     402.6  T
   3    -30.3110377 -0.497380E-11  0.387E-05    1.29     609.2  T
     SCC iter.                  ...        0 min,  0.004 sec
     gradient                   ...        0 min,  0.009 sec
 * total energy  :   -29.8920510 Eh     change       -0.1921876E-09 Eh
   gradient norm :     0.1232970 Eh/α   predicted     0.0000000E+00 (-100.00%)
   displ. norm   :     0.2539644 α      lambda       -0.1877229E-01
   maximum displ.:     0.1246135 α      in ANC's #15, #27, #9, ...

........................................................................
.............................. CYCLE    2 ..............................
........................................................................
   1    -30.3201588 -0.303202E+02  0.487E-01    1.73       0.0  T
   2    -30.3203622 -0.203419E-03  0.269E-01    1.89       1.0  T
   3    -30.3202205  0.141676E-03  0.207E-01    1.78       1.0  T
   4    -30.3205361 -0.315619E-03  0.636E-02    1.86       1.0  T
   5    -30.3205635 -0.274127E-04  0.371E-02    1.84       1.0  T
   6    -30.3205679 -0.436320E-05  0.150E-02    1.85       1.6  T
   7    -30.3205696 -0.165748E-05  0.704E-03    1.85       3.3  T
   8    -30.3205697 -0.154357E-06  0.349E-03    1.85       6.7  T
   9    -30.3205698 -0.828944E-07  0.807E-04    1.85      29.2  T
  10    -30.3205698 -0.290451E-08  0.463E-04    1.85      50.9  T
     SCC iter.                  ...        0 min,  0.011 sec
     gradient                   ...        0 min,  0.009 sec
 * total energy  :   -29.9046006 Eh     change       -0.1254958E-01 Eh
   gradient norm :     0.0498620 Eh/α   predicted    -0.9991535E-02 ( -20.38%)
   displ. norm   :     0.1876984 α      lambda       -0.4499953E-02
   maximum displ.:     0.1357793 α      in ANC's #9, #15, #17, ...

........................................................................
.............................. CYCLE    3 ..............................
........................................................................
   1    -30.3249931 -0.303250E+02  0.251E-01    2.05       0.0  T
   2    -30.3250896 -0.964734E-04  0.144E-01    2.13       1.0  T
   3    -30.3250844  0.517899E-05  0.106E-01    2.08       1.0  T
   4    -30.3251288 -0.443392E-04  0.440E-02    2.13       1.0  T
   5    -30.3251546 -0.257975E-04  0.206E-02    2.11       1.1  T
   6    -30.3251554 -0.881484E-06  0.876E-03    2.12       2.7  T
   7    -30.3251558 -0.362962E-06  0.364E-03    2.12       6.5  T
   8    -30.3251558 -0.259278E-07  0.208E-03    2.12      11.3  T
   9    -30.3251559 -0.376004E-07  0.519E-04    2.12      45.4  T
  10    -30.3251559 -0.156093E-08  0.302E-04    2.12      77.9  T
     SCC iter.                  ...        0 min,  0.011 sec
     gradient                   ...        0 min,  0.010 sec
 * total energy  :   -29.9071758 Eh     change       -0.2575197E-02 Eh
   gradient norm :     0.0146903 Eh/α   predicted    -0.2329246E-02 (  -9.55%)
   displ. norm   :     0.0741449 α      lambda       -0.4074530E-03
   maximum displ.:     0.0497920 α      in ANC's #9, #6, #5, ...

........................................................................
.............................. CYCLE    4 ..............................
........................................................................
   1    -30.3250372 -0.303250E+02  0.616E-02    2.14       0.0  T
   2    -30.3250425 -0.530693E-05  0.365E-02    2.13       1.0  T
   3    -30.3250402  0.223683E-05  0.202E-02    2.14       1.2  T
   4    -30.3250437 -0.350305E-05  0.111E-02    2.13       2.1  T
   5    -30.3250450 -0.128807E-05  0.413E-03    2.14       5.7  T
   6    -30.3250451 -0.243610E-07  0.232E-03    2.14      10.2  T
   7    -30.3250451 -0.139798E-07  0.789E-04    2.14      29.9  T
   8    -30.3250451 -0.217968E-08  0.339E-04    2.14      69.5  T
     SCC iter.                  ...        0 min,  0.009 sec
     gradient                   ...        0 min,  0.009 sec
 * total energy  :   -29.9074552 Eh     change       -0.2793970E-03 Eh
   gradient norm :     0.0081425 Eh/α   predicted    -0.2048480E-03 ( -26.68%)
   displ. norm   :     0.0607363 α      lambda       -0.1598633E-03
   maximum displ.:     0.0336188 α      in ANC's #6, #5, #9, ...

........................................................................
.............................. CYCLE    5 ..............................
........................................................................
   1    -30.3246113 -0.303246E+02  0.529E-02    2.14       0.0  T
   2    -30.3246132 -0.188856E-05  0.325E-02    2.12       1.0  T
   3    -30.3246096  0.366205E-05  0.232E-02    2.14       1.0  T
   4    -30.3246173 -0.769829E-05  0.652E-03    2.13       3.6  T
   5    -30.3246176 -0.290243E-06  0.235E-03    2.13      10.0  T
   6    -30.3246176 -0.175917E-07  0.132E-03    2.13      17.8  T
   7    -30.3246176 -0.562284E-08  0.662E-04    2.13      35.6  T
   8    -30.3246176 -0.148036E-08  0.325E-04    2.13      72.4  T
     SCC iter.                  ...        0 min,  0.009 sec
     gradient                   ...        0 min,  0.009 sec
 * total energy  :   -29.9075506 Eh     change       -0.9544196E-04 Eh
   gradient norm :     0.0042723 Eh/α   predicted    -0.8022866E-04 ( -15.94%)
   displ. norm   :     0.0293408 α      lambda       -0.2656034E-04
   maximum displ.:     0.0232202 α      in ANC's #5, #4, #3, ...

........................................................................
.............................. CYCLE    6 ..............................
........................................................................
   1    -30.3246376 -0.303246E+02  0.251E-02    2.13       0.0  T
   2    -30.3246379 -0.256235E-06  0.148E-02    2.12       1.6  T
   3    -30.3246370  0.897982E-06  0.113E-02    2.12       2.1  T
   4    -30.3246387 -0.176792E-05  0.249E-03    2.12       9.5  T
   5    -30.3246388 -0.335483E-07  0.109E-03    2.12      21.6  T
   6    -30.3246388 -0.100539E-07  0.395E-04    2.12      59.6  T
   7    -30.3246388 -0.817607E-09  0.129E-04    2.12     182.4  T
     SCC iter.                  ...        0 min,  0.008 sec
     gradient                   ...        0 min,  0.009 sec
 * total energy  :   -29.9075703 Eh     change       -0.1967541E-04 Eh
   gradient norm :     0.0023694 Eh/α   predicted    -0.1329114E-04 ( -32.45%)
   displ. norm   :     0.0499971 α      lambda       -0.2535743E-04
   maximum displ.:     0.0427794 α      in ANC's #5, #4, #3, ...

........................................................................
.............................. CYCLE    7 ..............................
........................................................................
   1    -30.3247487 -0.303247E+02  0.360E-02    2.12       0.0  T
   2    -30.3247492 -0.455375E-06  0.202E-02    2.12       1.2  T
   3    -30.3247467  0.247277E-05  0.148E-02    2.12       1.6  T
   4    -30.3247498 -0.315341E-05  0.320E-03    2.12       7.4  T
   5    -30.3247499 -0.596227E-07  0.151E-03    2.12      15.6  T
   6    -30.3247499 -0.214660E-07  0.487E-04    2.12      48.4  T
   7    -30.3247499 -0.200403E-08  0.135E-04    2.12     174.4  T
     SCC iter.                  ...        0 min,  0.008 sec
     gradient                   ...        0 min,  0.009 sec
 * total energy  :   -29.9075880 Eh     change       -0.1771292E-04 Eh
   gradient norm :     0.0013594 Eh/α   predicted    -0.1271172E-04 ( -28.23%)
   displ. norm   :     0.0947549 α      lambda       -0.1874594E-04
   maximum displ.:     0.0821176 α      in ANC's #5, #4, #3, ...

........................................................................
.............................. CYCLE    8 ..............................
........................................................................
   1    -30.3247504 -0.303248E+02  0.583E-02    2.12       0.0  T
   2    -30.3247512 -0.829043E-06  0.321E-02    2.12       1.0  T
   3    -30.3247492  0.203256E-05  0.135E-02    2.12       1.7  T
   4    -30.3247515 -0.226850E-05  0.433E-03    2.12       5.4  T
   5    -30.3247516 -0.101595E-06  0.222E-03    2.12      10.6  T
   6    -30.3247516 -0.521404E-07  0.727E-04    2.12      32.4  T
   7    -30.3247516 -0.761252E-08  0.186E-04    2.12     126.4  T
     SCC iter.                  ...        0 min,  0.008 sec
     gradient                   ...        0 min,  0.009 sec
 * total energy  :   -29.9076068 Eh     change       -0.1872399E-04 Eh
   gradient norm :     0.0034964 Eh/α   predicted    -0.9411924E-05 ( -49.73%)
   displ. norm   :     0.0517524 α      lambda       -0.1687995E-04
   maximum displ.:     0.0439751 α      in ANC's #5, #4, #1, ...

........................................................................
.............................. CYCLE    9 ..............................
........................................................................
   1    -30.3247462 -0.303247E+02  0.271E-02    2.12       0.0  T
   2    -30.3247463 -0.584771E-07  0.150E-02    2.12       1.6  T
   3    -30.3247454  0.890460E-06  0.790E-03    2.12       3.0  T
   4    -30.3247464 -0.985301E-06  0.181E-03    2.12      13.0  T
   5    -30.3247464 -0.161833E-07  0.763E-04    2.12      30.9  T
   6    -30.3247464 -0.516793E-08  0.200E-04    2.12     117.9  T
     SCC iter.                  ...        0 min,  0.007 sec
     gradient                   ...        0 min,  0.009 sec
 * total energy  :   -29.9076224 Eh     change       -0.1563447E-04 Eh
   gradient norm :     0.0033320 Eh/α   predicted    -0.8461053E-05 ( -45.88%)
   displ. norm   :     0.0854393 α      lambda       -0.3359580E-04
   maximum displ.:     0.0702046 α      in ANC's #5, #4, #1, ...

........................................................................
.............................. CYCLE   10 ..............................
........................................................................
   1    -30.3247001 -0.303247E+02  0.398E-02    2.13       0.0  T
   2    -30.3247002 -0.137197E-06  0.221E-02    2.13       1.1  T
   3    -30.3246969  0.328289E-05  0.161E-02    2.12       1.5  T
   4    -30.3247007 -0.379802E-05  0.274E-03    2.13       8.6  T
   5    -30.3247008 -0.423907E-07  0.119E-03    2.13      19.8  T
   6    -30.3247008 -0.102839E-07  0.338E-04    2.13      69.6  T
   7    -30.3247008 -0.828408E-09  0.139E-04    2.13     169.6  T
     SCC iter.                  ...        0 min,  0.008 sec
     gradient                   ...        0 min,  0.009 sec
 * total energy  :   -29.9076512 Eh     change       -0.2881342E-04 Eh
   gradient norm :     0.0021609 Eh/α   predicted    -0.1692229E-04 ( -41.27%)
   displ. norm   :     0.1309554 α      lambda       -0.4131060E-04
   maximum displ.:     0.1084158 α      in ANC's #5, #4, #2, ...

........................................................................
.............................. CYCLE   11 ..............................
........................................................................
   1    -30.3243309 -0.303243E+02  0.559E-02    2.13       0.0  T
   2    -30.3243313 -0.333234E-06  0.311E-02    2.14       1.0  T
   3    -30.3243264  0.484531E-05  0.191E-02    2.13       1.2  T
   4    -30.3243318 -0.541126E-05  0.392E-03    2.14       6.0  T
   5    -30.3243319 -0.962872E-07  0.154E-03    2.14      15.3  T
   6    -30.3243320 -0.177821E-07  0.456E-04    2.14      51.6  T
   7    -30.3243320 -0.180378E-08  0.185E-04    2.14     127.1  T
     SCC iter.                  ...        0 min,  0.008 sec
     gradient                   ...        0 min,  0.009 sec
 * total energy  :   -29.9076844 Eh     change       -0.3324693E-04 Eh
   gradient norm :     0.0024626 Eh/α   predicted    -0.2100739E-04 ( -36.81%)
   displ. norm   :     0.1333772 α      lambda       -0.3707904E-04
   maximum displ.:     0.1115408 α      in ANC's #5, #4, #2, ...

........................................................................
.............................. CYCLE   12 ..............................
........................................................................
   1    -30.3240320 -0.303240E+02  0.540E-02    2.13       0.0  T
   2    -30.3240323 -0.308980E-06  0.301E-02    2.14       1.0  T
   3    -30.3240302  0.209409E-05  0.126E-02    2.13       1.9  T
   4    -30.3240325 -0.224365E-05  0.386E-03    2.14       6.1  T
   5    -30.3240326 -0.105155E-06  0.128E-03    2.14      18.5  T
   6    -30.3240326 -0.150781E-07  0.390E-04    2.14      60.5  T
   7    -30.3240326 -0.140391E-08  0.175E-04    2.14     134.5  T
     SCC iter.                  ...        0 min,  0.008 sec
     gradient                   ...        0 min,  0.010 sec
 * total energy  :   -29.9077143 Eh     change       -0.2982859E-04 Eh
   gradient norm :     0.0037490 Eh/α   predicted    -0.1886987E-04 ( -36.74%)
   displ. norm   :     0.2295659 α      lambda       -0.6383289E-04
   maximum displ.:     0.1945230 α      in ANC's #5, #4, #2, ...

........................................................................
.............................. CYCLE   13 ..............................
........................................................................
   1    -30.3232815 -0.303233E+02  0.920E-02    2.13       0.0  T
   2    -30.3232824 -0.955050E-06  0.514E-02    2.14       1.0  T
   3    -30.3232808  0.165748E-05  0.128E-02    2.13       1.8  T
   4    -30.3232823 -0.153131E-05  0.688E-03    2.14       3.4  T
   5    -30.3232827 -0.434562E-06  0.193E-03    2.14      12.2  T
   6    -30.3232828 -0.423118E-07  0.599E-04    2.14      39.4  T
   7    -30.3232828 -0.354949E-08  0.292E-04    2.14      80.8  T
     SCC iter.                  ...        0 min,  0.008 sec
     gradient                   ...        0 min,  0.010 sec
 * total energy  :   -29.9077512 Eh     change       -0.3691647E-04 Eh
   gradient norm :     0.0063476 Eh/α   predicted    -0.3359765E-04 (  -8.99%)
   displ. norm   :     0.0826161 α      lambda       -0.6850567E-04
   maximum displ.:     0.0699190 α      in ANC's #5, #1, #2, ...

........................................................................
.............................. CYCLE   14 ..............................
........................................................................
   1    -30.3244505 -0.303245E+02  0.360E-02    2.13       0.0  T
   2    -30.3244509 -0.386630E-06  0.206E-02    2.13       1.1  T
   3    -30.3244494  0.151077E-05  0.103E-02    2.13       2.3  T
   4    -30.3244511 -0.164956E-05  0.287E-03    2.13       8.2  T
   5    -30.3244511 -0.677545E-07  0.113E-03    2.13      20.8  T
   6    -30.3244511 -0.470451E-08  0.471E-04    2.13      50.1  T
   7    -30.3244511 -0.208966E-08  0.155E-04    2.13     152.3  T
     SCC iter.                  ...        0 min,  0.009 sec
     gradient                   ...        0 min,  0.009 sec
 * total energy  :   -29.9077996 Eh     change       -0.4843198E-04 Eh
   gradient norm :     0.0046855 Eh/α   predicted    -0.3448829E-04 ( -28.79%)
   displ. norm   :     0.2626455 α      lambda       -0.8169287E-04
   maximum displ.:     0.2189793 α      in ANC's #5, #2, #4, ...

........................................................................
.............................. CYCLE   15 ..............................
........................................................................
   1    -30.3236119 -0.303236E+02  0.102E-01    2.12       0.0  T
   2    -30.3236131 -0.116437E-05  0.584E-02    2.12       1.0  T
   3    -30.3236063  0.679494E-05  0.223E-02    2.13       1.1  T
   4    -30.3236137 -0.739337E-05  0.619E-03    2.12       3.8  T
   5    -30.3236138 -0.149568E-06  0.253E-03    2.12       9.3  T
   6    -30.3236139 -0.501793E-07  0.642E-04    2.12      36.7  T
   7    -30.3236139 -0.333936E-08  0.272E-04    2.12      86.6  T
     SCC iter.                  ...        0 min,  0.008 sec
     gradient                   ...        0 min,  0.009 sec
 * total energy  :   -29.9078450 Eh     change       -0.4541766E-04 Eh
   gradient norm :     0.0059093 Eh/α   predicted    -0.4366354E-04 (  -3.86%)
   displ. norm   :     0.0534998 α      lambda       -0.8274645E-04
   maximum displ.:     0.0277959 α      in ANC's #5, #2, #3, ...

........................................................................
.............................. CYCLE   16 ..............................
........................................................................
   1    -30.3254588 -0.303255E+02  0.327E-02    2.12       0.0  T
   2    -30.3254595 -0.689463E-06  0.191E-02    2.11       1.2  T
   3    -30.3254587  0.824990E-06  0.154E-02    2.12       1.5  T
   4    -30.3254614 -0.265602E-05  0.379E-03    2.11       6.2  T
   5    -30.3254614 -0.750519E-07  0.160E-03    2.11      14.7  T
   6    -30.3254614 -0.974423E-08  0.684E-04    2.11      34.5  T
   7    -30.3254614 -0.281095E-08  0.271E-04    2.11      86.9  T
     SCC iter.                  ...        0 min,  0.008 sec
     gradient                   ...        0 min,  0.009 sec
 * total energy  :   -29.9078903 Eh     change       -0.4524030E-04 Eh
   gradient norm :     0.0020230 Eh/α   predicted    -0.4149188E-04 (  -8.29%)
   displ. norm   :     0.1657251 α      lambda       -0.3622083E-04
   maximum displ.:     0.1314618 α      in ANC's #5, #2, #4, ...

........................................................................
.............................. CYCLE   17 ..............................
........................................................................
   1    -30.3248560 -0.303249E+02  0.572E-02    2.11       0.0  T
   2    -30.3248566 -0.567355E-06  0.328E-02    2.11       1.0  T
   3    -30.3248541  0.247215E-05  0.134E-02    2.12       1.8  T
   4    -30.3248567 -0.264996E-05  0.386E-03    2.11       6.1  T
   5    -30.3248568 -0.109260E-06  0.161E-03    2.11      14.7  T
   6    -30.3248569 -0.145759E-07  0.469E-04    2.11      50.3  T
   7    -30.3248569 -0.195976E-08  0.152E-04    2.11     155.3  T
     SCC iter.                  ...        0 min,  0.008 sec
     gradient                   ...        0 min,  0.009 sec
 * total energy  :   -29.9079109 Eh     change       -0.2058977E-04 Eh
   gradient norm :     0.0039219 Eh/α   predicted    -0.1860956E-04 (  -9.62%)
   displ. norm   :     0.0569314 α      lambda       -0.2960054E-04
   maximum displ.:     0.0368950 α      in ANC's #2, #5, #24, ...

........................................................................
.............................. CYCLE   18 ..............................
........................................................................
   1    -30.3251803 -0.303252E+02  0.190E-02    2.11       0.0  T
   2    -30.3251804 -0.101216E-06  0.114E-02    2.12       2.1  T
   3    -30.3251798  0.618132E-06  0.697E-03    2.11       3.4  T
   4    -30.3251805 -0.696384E-06  0.124E-03    2.12      19.1  T
   5    -30.3251805 -0.190459E-07  0.546E-04    2.11      43.2  T
   6    -30.3251805 -0.230684E-08  0.245E-04    2.12      96.3  T
     SCC iter.                  ...        0 min,  0.007 sec
     gradient                   ...        0 min,  0.009 sec
 * total energy  :   -29.9079353 Eh     change       -0.2441345E-04 Eh
   gradient norm :     0.0032169 Eh/α   predicted    -0.1484957E-04 ( -39.17%)
   displ. norm   :     0.1928611 α      lambda       -0.6545478E-04
   maximum displ.:     0.1281019 α      in ANC's #2, #5, #24, ...

........................................................................
.............................. CYCLE   19 ..............................
........................................................................
   1    -30.3248867 -0.303249E+02  0.592E-02    2.12       0.0  T
   2    -30.3248871 -0.431005E-06  0.353E-02    2.13       1.0  T
   3    -30.3248814  0.572331E-05  0.203E-02    2.12       1.2  T
   4    -30.3248877 -0.627978E-05  0.316E-03    2.13       7.4  T
   5    -30.3248878 -0.121476E-06  0.126E-03    2.13      18.6  T
   6    -30.3248878 -0.520276E-08  0.597E-04    2.13      39.5  T
   7    -30.3248878 -0.193910E-08  0.231E-04    2.13     101.9  T
     SCC iter.                  ...        0 min,  0.008 sec
     gradient                   ...        0 min,  0.009 sec
 * total energy  :   -29.9079807 Eh     change       -0.4539225E-04 Eh
   gradient norm :     0.0032972 Eh/α   predicted    -0.3394338E-04 ( -25.22%)
   displ. norm   :     0.1348723 α      lambda       -0.7008156E-04
   maximum displ.:     0.1156134 α      in ANC's #2, #1, #24, ...

........................................................................
.............................. CYCLE   20 ..............................
........................................................................
   1    -30.3260291 -0.303260E+02  0.765E-02    2.13       0.0  T
   2    -30.3260302 -0.106737E-05  0.439E-02    2.14       1.0  T
   3    -30.3260206  0.957726E-05  0.262E-02    2.13       1.0  T
   4    -30.3260314 -0.107893E-04  0.483E-03    2.14       4.9  T
   5    -30.3260315 -0.994628E-07  0.256E-03    2.14       9.2  T
   6    -30.3260315 -0.379796E-07  0.738E-04    2.14      31.9  T
   7    -30.3260315 -0.303406E-08  0.356E-04    2.14      66.1  T
     SCC iter.                  ...        0 min,  0.008 sec
     gradient                   ...        0 min,  0.009 sec
 * total energy  :   -29.9080020 Eh     change       -0.2127368E-04 Eh
   gradient norm :     0.0035881 Eh/α   predicted    -0.3567998E-04 (  67.72%)
   displ. norm   :     0.3043490 α      lambda       -0.8152914E-04
   maximum displ.:     0.2096848 α      in ANC's #2, #5, #24, ...
 * RMSD in coord.:     0.4699832 α      energy gain  -0.1595093E-01 Eh

generating ANC from model Hessian ...
Using Lindh-Hessian (1995)
 Shifting diagonal of input Hessian by   8.140238664365832E-003
 Lowest  eigenvalues of input Hessian
    0.000000    0.000000    0.000000    0.000000    0.000000    0.000000
    0.010000    0.011504    0.013294    0.017465    0.018615    0.030291
    0.031619    0.038337    0.040019    0.040750    0.069627    0.069813
 Highest eigenvalues
    1.699182    1.799619    1.900465    1.985315    2.051486    2.092645
 

........................................................................
.............................. CYCLE   21 ..............................
........................................................................
   1    -30.3228175 -0.303228E+02  0.987E-02    2.14       0.0  T
   2    -30.3228213 -0.377941E-05  0.576E-02    2.14       1.0  T
   3    -30.3228213 -0.549626E-07  0.879E-03    2.14       2.7  T
   4    -30.3228214 -0.108023E-06  0.450E-03    2.14       5.2  T
   5    -30.3228216 -0.216520E-06  0.225E-03    2.14      10.5  T
   6    -30.3228217 -0.355712E-07  0.777E-04    2.14      30.3  T
   7    -30.3228217 -0.494202E-08  0.328E-04    2.14      71.8  T
     SCC iter.                  ...        0 min,  0.008 sec
     gradient                   ...        0 min,  0.009 sec
 * total energy  :   -29.9079884 Eh     change        0.1351907E-04 Eh
   gradient norm :     0.0072049 Eh/α   predicted     0.0000000E+00 (-100.00%)
   displ. norm   :     0.0246817 α      lambda       -0.1139296E-03
   maximum displ.:     0.0117114 α      in ANC's #7, #23, #29, ...

........................................................................
.............................. CYCLE   22 ..............................
........................................................................
   1    -30.3250008 -0.303250E+02  0.284E-02    2.13       0.0  T
   2    -30.3250019 -0.108132E-05  0.165E-02    2.13       1.4  T
   3    -30.3250007  0.114238E-05  0.117E-02    2.13       2.0  T
   4    -30.3250022 -0.142324E-05  0.393E-03    2.13       6.0  T
   5    -30.3250024 -0.188113E-06  0.103E-03    2.13      23.0  T
   6    -30.3250024 -0.108798E-08  0.579E-04    2.13      40.7  T
   7    -30.3250024 -0.168340E-08  0.245E-04    2.13      96.2  T
     SCC iter.                  ...        0 min,  0.008 sec
     gradient                   ...        0 min,  0.009 sec
 * total energy  :   -29.9080578 Eh     change       -0.6934226E-04 Eh
   gradient norm :     0.0023177 Eh/α   predicted    -0.5699987E-04 ( -17.80%)
   displ. norm   :     0.0153705 α      lambda       -0.1340368E-04
   maximum displ.:     0.0070844 α      in ANC's #7, #3, #2, ...

........................................................................
.............................. CYCLE   23 ..............................
........................................................................
   1    -30.3256354 -0.303256E+02  0.108E-02    2.13       0.0  T
   2    -30.3256356 -0.177516E-06  0.659E-03    2.13       3.6  T
   3    -30.3256355  0.556245E-07  0.471E-03    2.13       5.0  T
   4    -30.3256357 -0.170361E-06  0.173E-03    2.13      13.6  T
   5    -30.3256357 -0.334083E-07  0.565E-04    2.13      41.7  T
   6    -30.3256357 -0.239214E-08  0.251E-04    2.13      93.8  T
     SCC iter.                  ...        0 min,  0.007 sec
     gradient                   ...        0 min,  0.009 sec
 * total energy  :   -29.9080662 Eh     change       -0.8408891E-05 Eh
   gradient norm :     0.0008825 Eh/α   predicted    -0.6702528E-05 ( -20.29%)
   displ. norm   :     0.0207700 α      lambda       -0.3605525E-05
   maximum displ.:     0.0101893 α      in ANC's #2, #3, #5, ...

........................................................................
.............................. CYCLE   24 ..............................
........................................................................
   1    -30.3257637 -0.303258E+02  0.101E-02    2.12       0.0  T
   2    -30.3257638 -0.133968E-06  0.580E-03    2.12       4.1  T
   3    -30.3257638  0.638942E-07  0.369E-03    2.12       6.4  T
   4    -30.3257639 -0.931184E-07  0.148E-03    2.12      15.9  T
   5    -30.3257639 -0.240803E-07  0.516E-04    2.12      45.7  T
   6    -30.3257639 -0.236984E-08  0.254E-04    2.12      92.7  T
     SCC iter.                  ...        0 min,  0.007 sec
     gradient                   ...        0 min,  0.009 sec
 * total energy  :   -29.9080693 Eh     change       -0.3085200E-05 Eh
   gradient norm :     0.0006570 Eh/α   predicted    -0.1801410E-05 ( -41.61%)
   displ. norm   :     0.0165524 α      lambda       -0.1459756E-05
   maximum displ.:     0.0100205 α      in ANC's #2, #4, #5, ...

   *** GEOMETRY OPTIMIZATION CONVERGED AFTER 24 ITERATIONS ***

------------------------------------------------------------------------
 total energy gain   :        -0.0160182 Eh      -10.0516 kcal/mol
 total RMSD          :         0.4756106 a0        0.2517 Å
 total power (kW/mol):        -1.7523292 (step)  -75.4381 (real)
------------------------------------------------------------------------

 ANCopt (total)                0 d,  0 h,  0 min,  0.558 sec
 optimizer setup                ...        0 min,  0.000 sec (  0.089%)
 model hessian                  ...        0 min,  0.005 sec (  0.896%)
 ANC generation                 ...        0 min,  0.001 sec (  0.254%)
 coordinate transformation      ...        0 min,  0.000 sec (  0.064%)
 single point calculation       ...        0 min,  0.539 sec ( 96.620%)
 optimization log               ...        0 min,  0.005 sec (  0.813%)
 hessian update                 ...        0 min,  0.000 sec (  0.061%)
 rational function              ...        0 min,  0.005 sec (  0.909%)

================
 final structure:
================
18
 xtb: 6.4.1 (afa7bdf)
C        -3.64923187884470   -0.25635085556977   -0.76929022995800
C        -2.32086272061728   -0.33369122898080   -0.09659852725868
C        -1.09857966311654    0.02136318333653   -0.55283501120607
C        -0.05764224511438   -0.20249511990394    0.40494599432664
C         1.31579136747897    0.10296979422777    0.12621214921733
N         1.74848958166694    0.62344414780000   -1.02183976343339
N         3.08493568373692    0.75801174188670   -0.88545371411132
C         3.51628895231139    0.33324289722795    0.32890172567395
C         2.41559331050495   -0.09525075587224    1.01097671746591
C        -0.42733644439674   -0.73769067824380    1.64234672630744
S        -2.17472234896583   -0.94872659096190    1.54041661566718
H        -4.15211370186918   -1.22617128871483   -0.75441469627939
H        -3.52488115013981    0.05645920080808   -1.80708533423529
H        -4.30390956493287    0.46221516823727   -0.26751494796975
H        -0.91430850984839    0.43001842407955   -1.53694428079497
H         3.63008344509144    1.13788832685074   -1.64106640181669
H         4.55788283446260    0.37473936012194    0.59372380902063
H         2.35452105259258   -0.49997472632935    1.99987616938444
 
 Bond Distances (Angstroems)
 ---------------------------
C1-C2=1.4910         C1-H12=1.0925        C1-H13=1.0910        C1-H14=1.0939        C2-C1=1.4910         C2-C3=1.3521         
C2-S11=1.7548        C3-C2=1.3521         C3-C4=1.4321         C3-H15=1.0814        C4-C3=1.4321         C4-C5=1.4343         
C4-C10=1.3980        C5-C4=1.4343         C5-N6=1.3327         C5-C9=1.4254         N6-C5=1.3327         N6-N7=1.3501         
N7-N6=1.3501         N7-C8=1.3569         N7-H16=1.0062        C8-N7=1.3569         C8-C9=1.3640         C8-H17=1.0755        
C9-C5=1.4254         C9-C8=1.3640         C9-H18=1.0703        C10-C4=1.3980        C10-S11=1.7630       S11-C2=1.7548        
S11-C10=1.7630       H12-C1=1.0925        H13-C1=1.0910        H14-C1=1.0939        H15-C3=1.0814        H16-N7=1.0062        
H17-C8=1.0755        H18-C9=1.0703        
 C  H  Rav=1.0841 sigma=0.0090  Rmin=1.0703  Rmax=1.0939     6
 C  C  Rav=1.4138 sigma=0.0437  Rmin=1.3521  Rmax=1.4910     7
 N  H  Rav=1.0062 sigma=0.0000  Rmin=1.0062  Rmax=1.0062     1
 N  C  Rav=1.3448 sigma=0.0121  Rmin=1.3327  Rmax=1.3569     2
 N  N  Rav=1.3501 sigma=0.0000  Rmin=1.3501  Rmax=1.3501     1
 S  C  Rav=1.7589 sigma=0.0041  Rmin=1.7548  Rmax=1.7630     2
 
 selected bond angles (degree)
 --------------------
H12-C1-C2=110.97               H13-C1-C2=110.03               H13-C1-H12=108.66              H14-C1-C2=111.12               
H14-C1-H12=107.54              H14-C1-H13=108.43              C3-C2-C1=129.76                S11-C2-C1=120.88               
S11-C2-C3=109.36               C4-C3-C2=112.98                H15-C3-C2=124.08               H15-C3-C4=122.94               
C5-C4-C3=122.19                C10-C4-C3=117.36               C10-C4-C5=120.45               N6-C5-C4=124.16                
C9-C5-C4=126.06                C9-C5-N6=109.79                N7-N6-C5=105.86                C8-N7-N6=111.96                
H16-N7-N6=119.87               H16-N7-C8=128.17               C9-C8-N7=106.82                H17-C8-N7=121.07               
H17-C8-C9=132.11               C8-C9-C5=105.58                H18-C9-C5=125.60               H18-C9-C8=128.82               
S11-C10-C4=104.88              
 
 selected dihedral angles (degree)
 ---------------------------------
C3-C2-C1-H12=126.29           C3-C2-C1-H13=  6.00           C3-C2-C1-H14=245.90           S11-C2-C1-H12=305.83          
S11-C2-C1-H13=185.54          S11-C2-C1-H14= 65.44          C4-C3-C2-C1=179.70            C4-C3-C2-S11=  0.12           
H15-C3-C2-C1=359.55           H15-C3-C2-S11=179.96          C5-C4-C3-C2=179.91            C5-C4-C3-H15=  0.06           
C10-C4-C3-C2=359.92           C10-C4-C3-H15=180.07          N6-C5-C4-C3=  0.54            N6-C5-C4-C10=180.53           
C9-C5-C4-C3=180.52            C9-C5-C4-C10=  0.51           N7-N6-C5-C4=179.98            N7-N6-C5-C9=  0.00            
C8-N7-N6-C5=  0.00            H16-N7-N6-C5=180.03           C9-C8-N7-N6=  0.00            C9-C8-N7-H16=179.96           
H17-C8-N7-N6=180.00           H17-C8-N7-H16=359.97          C8-C9-C5-C4=180.01            C8-C9-C5-N6=  0.00            
H18-C9-C5-C4=  0.05           H18-C9-C5-N6=180.03           C5-C9-C8-N7=  0.00            C5-C9-C8-H17=180.00           
H18-C9-C8-N7=179.97           H18-C9-C8-H17=359.96          S11-C10-C4-C3=  0.00          S11-C10-C4-C5=180.01          
           -------------------------------------------------
          |                Final Singlepoint                |
           -------------------------------------------------

          ...................................................
          :                      SETUP                      :
          :.................................................:
          :  # basis functions                  57          :
          :  # atomic orbitals                  56          :
          :  # shells                           30          :
          :  # electrons                        56          :
          :  max. iterations                   250          :
          :  Hamiltonian                  GFN2-xTB          :
          :  restarted?                      false          :
          :  GBSA solvation                  false          :
          :  PC potential                    false          :
          :  electronic temp.          300.0000000     K    :
          :  accuracy                    1.0000000          :
          :  -> integral cutoff          0.2500000E+02      :
          :  -> integral neglect         0.1000000E-07      :
          :  -> SCF convergence          0.1000000E-05 Eh   :
          :  -> wf. convergence          0.1000000E-03 e    :
          :  Broyden damping             0.4000000          :
          ...................................................

 iter      E             dE          RMSdq      gap      omega  full diag
   1    -30.3257639 -0.303258E+02  0.141E-04    2.12       0.0  T
   2    -30.3257639 -0.159162E-10  0.933E-05    2.12     252.7  T
   3    -30.3257639 -0.762554E-10  0.693E-05    2.12     340.2  T

   *** convergence criteria satisfied after 3 iterations ***

         #    Occupation            Energy/Eh            Energy/eV
      -------------------------------------------------------------
         1        2.0000           -0.5372991             -14.6207
       ...           ...                  ...                  ...
        22        2.0000           -0.2520185              -6.8578
        23        2.0000           -0.2463871              -6.7045
        24        2.0000           -0.2339766              -6.3668
        25        2.0000           -0.2270606              -6.1786
        26        2.0000           -0.1888833              -5.1398
        27        2.0000           -0.1622232              -4.4143
        28        2.0000           -0.1420271              -3.8648 (HOMO)
        29                         -0.0639621              -1.7405 (LUMO)
        30                         -0.0333545              -0.9076
        31                         -0.0152383              -0.4147
        32                          0.0049869               0.1357
        33                          0.0840313               2.2866
       ...                                ...                  ...
        56                          0.8841206              24.0581
      -------------------------------------------------------------
                  HL-Gap            0.0780650 Eh            2.1243 eV
             Fermi-level           -0.1029946 Eh           -2.8026 eV
 
 localization/xTB-IFF output generation
 averaging CT terms over            1  occ. levels
 averaging CT terms over            1  virt. levels
 dipole moment from electron density (au)
     X       Y       Z   
   1.6265   1.1130  -2.0902  total (Debye):    7.302
cpu  time for init local    0.00 s
wall time for init local    0.00 s
 doing rotations ...
 initialization of trafo matrix to unity

 converged in     45 iterations, threshold :   0.99535726D-06
 doing transformations ...
 lmo centers(Z=2) and atoms on file <lmocent.coord>
 LMO Fii/eV  ncent    charge center   contributions...
    1 sigma -12.79   1.94   4.64603   1.36352  -1.80618    7N :  0.57    6N :  0.43
    2 sigma -12.49   1.92   6.24634   1.24475  -0.62987    7N :  0.59    8C :  0.42
    3 sigma -12.37   1.97   6.47755   1.88564  -2.55189    7N :  0.56   16H :  0.45
    4 sigma -10.96   2.00   7.97729   0.68321   0.95990   17H :  0.51    8C :  0.48
    5 sigma -10.19   1.98  -6.72693  -0.08977  -2.76144   13H :  0.51    1C :  0.50
    6 sigma -10.16   1.98  -7.69347   0.42292  -0.81303   14H :  0.50    1C :  0.50
    7 sigma -10.15   1.96  -5.69101  -0.55931  -0.83218    1C :  0.54    2C :  0.47
    8 sigma -10.15   1.98  -7.50589  -1.70639  -1.42929   12H :  0.50    1C :  0.50
    9 sigma -10.00   2.00   3.49661  -0.02840   1.16553    9C :  0.52    5C :  0.48
   10 sigma  -9.69   2.01   4.49505  -0.68930   3.15780   18H :  0.50    9C :  0.50
   11 sigma  -9.55   1.96  -4.34894  -1.22701   1.36615   11S :  0.57    2C :  0.43
   12 sigma  -9.42   2.00   1.24137  -0.07868   0.48049    5C :  0.54    4C :  0.45
   13 pi     -9.40   2.16   5.42678   0.67398   1.45285    9C :  0.49    8C :  0.47
   14 pi     -9.37   2.16   5.54069  -0.26397   1.07100    9C :  0.49    8C :  0.47
   15 pi     -9.28   2.08   2.94749   1.16972  -0.78837    6N :  0.57    5C :  0.40
   16 pi     -9.26   1.54   5.72965   1.08222  -1.37308    7N :  0.80    8C :  0.12
   17 pi     -9.26   2.09   3.07338   0.31748  -1.12332    6N :  0.57    5C :  0.40
   18 sigma  -9.06   1.99  -1.08808  -0.14365  -0.20845    3C :  0.53    4C :  0.47
   19 sigma  -8.96   2.01  -1.84572   0.56263  -2.30486   15H :  0.52    3C :  0.47
   20 LP     -8.42   1.15  -4.34567  -4.40022   2.70692   11S :  0.93
   21 LP     -8.42   1.14  -4.99220   0.12727   4.46466   11S :  0.93
   22 sigma  -8.37   1.78  -2.69910  -1.63014   3.01327   11S :  0.68   10C :  0.32
   23 pi     -8.24   2.08  -3.18062  -0.80582  -0.75471    2C :  0.51    3C :  0.47
   24 pi     -8.24   2.08  -3.32019   0.17146  -0.37456    2C :  0.51    3C :  0.47
   25 LP     -7.43   1.02   2.45020   1.68372  -3.50052    6N :  0.99
   26 delpi  -7.13   2.31  -0.32225  -1.15162   1.37242    4C :  0.55   10C :  0.36
   27 delpi  -7.09   2.32  -0.44123  -0.29215   1.70021    4C :  0.55   10C :  0.36
   28 LP     -5.19   1.08  -0.11204  -1.97298   4.84621   10C :  0.96
 starting deloc pi regularization ...
 thr    2.20000000000000      # pi deloc LMO           5
 files:
 coordprot.0/xtbscreen.xyz/xtblmoinfo/lmocent.coord
 with protonation site input, xtbdock and
 LMO center info written
 

 SCC (total)                   0 d,  0 h,  0 min,  0.034 sec
 SCC setup                      ...        0 min,  0.000 sec (  0.481%)
 Dispersion                     ...        0 min,  0.000 sec (  0.407%)
 classical contributions        ...        0 min,  0.000 sec (  0.103%)
 integral evaluation            ...        0 min,  0.005 sec ( 13.221%)
 iterations                     ...        0 min,  0.004 sec ( 12.539%)
 molecular gradient             ...        0 min,  0.010 sec ( 28.194%)
 printout                       ...        0 min,  0.015 sec ( 44.922%)

         :::::::::::::::::::::::::::::::::::::::::::::::::::::
         ::                     SUMMARY                     ::
         :::::::::::::::::::::::::::::::::::::::::::::::::::::
         :: total energy             -29.908069270879 Eh    ::
         :: gradient norm              0.000656223563 Eh/a0 ::
         :: HOMO-LUMO gap              2.124257027600 eV    ::
         ::.................................................::
         :: SCC energy               -30.325763901887 Eh    ::
         :: -> isotropic ES            0.110303260629 Eh    ::
         :: -> anisotropic ES          0.007919449715 Eh    ::
         :: -> anisotropic XC          0.018350985630 Eh    ::
         :: -> dispersion             -0.018439943871 Eh    ::
         :: repulsion energy           0.417748731324 Eh    ::
         :: add. restraining           0.000000000000 Eh    ::
         :: total charge              -1.000000000000 e     ::
         :::::::::::::::::::::::::::::::::::::::::::::::::::::

           -------------------------------------------------
          |                Property Printout                |
           -------------------------------------------------

    * Orbital Energies and Occupations

         #    Occupation            Energy/Eh            Energy/eV
      -------------------------------------------------------------
         1        2.0000           -0.5372991             -14.6207
       ...           ...                  ...                  ...
        16        2.0000           -0.3257819              -8.8650
        17        2.0000           -0.3238034              -8.8111
        18        2.0000           -0.3177632              -8.6468
        19        2.0000           -0.2755943              -7.4993
        20        2.0000           -0.2665532              -7.2533
        21        2.0000           -0.2616052              -7.1186
        22        2.0000           -0.2520185              -6.8578
        23        2.0000           -0.2463871              -6.7045
        24        2.0000           -0.2339766              -6.3668
        25        2.0000           -0.2270606              -6.1786
        26        2.0000           -0.1888833              -5.1398
        27        2.0000           -0.1622232              -4.4143
        28        2.0000           -0.1420271              -3.8648 (HOMO)
        29                         -0.0639621              -1.7405 (LUMO)
        30                         -0.0333545              -0.9076
        31                         -0.0152383              -0.4147
        32                          0.0049869               0.1357
        33                          0.0840313               2.2866
        34                          0.0859635               2.3392
        35                          0.1458492               3.9688
        36                          0.1963942               5.3442
        37                          0.2099536               5.7131
        38                          0.2286564               6.2221
        39                          0.2491308               6.7792
       ...                                ...                  ...
        56                          0.8841206              24.0581
      -------------------------------------------------------------
                  HL-Gap            0.0780650 Eh            2.1243 eV
             Fermi-level           -0.1029946 Eh           -2.8026 eV

     #   Z          covCN         q      C6AA      α(0)
     1   6 C        3.769    -0.076    21.985     6.682
     2   6 C        2.975     0.006    27.880     8.661
     3   6 C        3.100    -0.062    29.417     8.888
     4   6 C        3.224    -0.043    28.287     8.644
     5   6 C        3.130     0.071    26.214     8.382
     6   7 N        1.982    -0.291    28.350     7.896
     7   7 N        2.971    -0.038    21.969     6.961
     8   6 C        2.982    -0.016    28.392     8.740
     9   6 C        3.019    -0.083    30.046     8.991
    10   6 C        1.974    -0.233    37.964     9.950
    11  16 S        2.397    -0.328   155.356    20.978
    12   1 H        0.924     0.009     2.900     2.663
    13   1 H        0.924     0.001     3.044     2.728
    14   1 H        0.924     0.007     2.944     2.683
    15   1 H        0.925    -0.035     3.746     3.027
    16   1 H        0.860     0.117     1.647     2.011
    17   1 H        0.926    -0.018     3.386     2.877
    18   1 H        0.927     0.011     2.872     2.650

 Mol. C6AA /au·bohr⁶  :       5943.542232
 Mol. C8AA /au·bohr⁸  :     164301.820182
 Mol. α(0) /au        :        123.414437


Wiberg/Mayer (AO) data.
largest (>0.10) Wiberg bond orders for each atom

 ---------------------------------------------------------------------------
     #   Z sym  total        # sym  WBO       # sym  WBO       # sym  WBO
 ---------------------------------------------------------------------------
     1   6 C    3.994 --     2 C    1.022    13 H    0.984    12 H    0.980
                            14 H    0.978
     2   6 C    3.934 --     3 C    1.644    11 S    1.092     1 C    1.022
                            10 C    0.109
     3   6 C    3.979 --     2 C    1.644     4 C    1.193    15 H    0.962
     4   6 C    3.955 --    10 C    1.485     3 C    1.193     5 C    1.124
     5   6 C    3.964 --     6 N    1.438     9 C    1.249     4 C    1.124
     6   7 N    2.910 --     5 C    1.438     7 N    1.148     8 C    0.156
     7   7 N    3.551 --     8 C    1.233     6 N    1.148    16 H    0.956
                             9 C    0.102
     8   6 C    3.948 --     9 C    1.570     7 N    1.233    17 H    0.968
                             6 N    0.156
     9   6 C    3.976 --     8 C    1.570     5 C    1.249    18 H    0.975
                             7 N    0.102
    10   6 C    2.977 --     4 C    1.485    11 S    1.222     2 C    0.109
    11  16 S    2.519 --    10 C    1.222     2 C    1.092
    12   1 H    0.999 --     1 C    0.980
    13   1 H    1.000 --     1 C    0.984
    14   1 H    0.999 --     1 C    0.978
    15   1 H    0.999 --     3 C    0.962
    16   1 H    0.986 --     7 N    0.956
    17   1 H    0.999 --     8 C    0.968
    18   1 H    1.000 --     9 C    0.975
 ---------------------------------------------------------------------------

Topologies differ in total number of bonds
Writing topology from bond orders to xtbtopo.mol

molecular dipole:
                 x           y           z       tot (Debye)
 q only:        1.307       0.766      -1.321
   full:        1.626       1.113      -2.090       7.302
molecular quadrupole (traceless):
                xx          xy          yy          xz          yz          zz
 q only:       -6.908      -3.869       6.704       3.903       4.105       0.204
  q+dip:        1.106      -3.305       4.016       5.992       5.723      -5.122
   full:        0.363      -3.763       5.501       6.170       6.831      -5.863

           -------------------------------------------------
          |                Geometry Summary                 |
           -------------------------------------------------

      molecular mass/u    :      163.2196663
   center of mass at/Å    :       -0.0494922      -0.1492310       0.2720022
  moments of inertia/u·Å² :        0.1770250E+03   0.9370165E+03   0.1110900E+04
rotational constants/cm⁻¹ :        0.9522741E-01   0.1799075E-01   0.1517475E-01

 * 16 selected distances

     #   Z          #   Z                                           value/Å
     2   6 C        3   6 C                                       1.3521062
     3   6 C        4   6 C                                       1.4321340
     4   6 C        5   6 C                                       1.4343365
     5   6 C        6   7 N                                       1.3327207
     6   7 N        7   7 N                                       1.3501103
     7   7 N        8   6 C                                       1.3568911
     5   6 C        9   6 C                                       1.4253645
     8   6 C        9   6 C                                       1.3639516
     2   6 C       11  16 S                                       1.7548345 (max)
     1   6 C       12   1 H                                       1.0925489
     1   6 C       13   1 H                                       1.0910233
     1   6 C       14   1 H                                       1.0939463
     3   6 C       15   1 H                                       1.0814000
     7   7 N       16   1 H                                       1.0062022 (min)
     8   6 C       17   1 H                                       1.0755327
     9   6 C       18   1 H                                       1.0702586

 * 6 distinct bonds (by element types)

   Z      Z             #   av. dist./Å        max./Å        min./Å
   1 H    6 C           6     1.0841183     1.0939463     1.0702586
   6 C    6 C           5     1.4015786     1.4343365     1.3521062
   1 H    7 N           1     1.0062022     1.0062022     1.0062022
   6 C    7 N           2     1.3448059     1.3568911     1.3327207
   7 N    7 N           1     1.3501103     1.3501103     1.3501103
   6 C   16 S           1     1.7548345     1.7548345     1.7548345


optimized geometry written to: xtbopt.xyz


           -------------------------------------------------
          | TOTAL ENERGY              -29.908069270879 Eh   |
          | GRADIENT NORM               0.000656223563 Eh/α |
          | HOMO-LUMO GAP               2.124257027600 eV   |
           -------------------------------------------------

------------------------------------------------------------------------
 * finished run on 2022/11/02 at 18:13:41.497     
------------------------------------------------------------------------
 total:
 * wall-time:     0 d,  0 h,  0 min,  0.773 sec
 *  cpu-time:     0 d,  0 h,  0 min,  0.662 sec
 * ratio c/w:     0.857 speedup
 SCF:
 * wall-time:     0 d,  0 h,  0 min,  0.050 sec
 *  cpu-time:     0 d,  0 h,  0 min,  0.043 sec
 * ratio c/w:     0.870 speedup
 ANC optimizer:
 * wall-time:     0 d,  0 h,  0 min,  0.647 sec
 *  cpu-time:     0 d,  0 h,  0 min,  0.589 sec
 * ratio c/w:     0.911 speedup

