      -----------------------------------------------------------      
     |                   =====================                   |     
     |                           x T B                           |     
     |                   =====================                   |     
     |                         S. Grimme                         |     
     |          Mulliken Center for Theoretical Chemistry        |     
     |                    University of Bonn                     |     
      -----------------------------------------------------------      

   * xtb version 6.4.1 (afa7bdf) compiled by 'ehlert@majestix' on 2021-06-10

   xtb is free software: you can redistribute it and/or modify it under
   the terms of the GNU Lesser General Public License as published by
   the Free Software Foundation, either version 3 of the License, or
   (at your option) any later version.
   
   xtb is distributed in the hope that it will be useful,
   but WITHOUT ANY WARRANTY; without even the implied warranty of
   MERCHANTABILITY or FITNESS FOR A PARTICULAR PURPOSE.  See the
   GNU Lesser General Public License for more details.
   
   Cite this work as:
   * C. Bannwarth, E. Caldeweyher, S. Ehlert, A. Hansen, P. Pracht,
     J. Seibert, S. Spicher, S. Grimme, WIREs Comput. Mol. Sci., 2020, 11,
     e01493. DOI: 10.1002/wcms.1493
   
   for GFN2-xTB:
   * C. Bannwarth, S. Ehlert and S. Grimme., J. Chem. Theory Comput., 2019,
     15, 1652-1671. DOI: 10.1021/acs.jctc.8b01176
   for GFN1-xTB:
   * S. Grimme, C. Bannwarth, P. Shushkov, J. Chem. Theory Comput., 2017,
     13, 1989-2009. DOI: 10.1021/acs.jctc.7b00118
   for GFN0-xTB:
   * P. Pracht, E. Caldeweyher, S. Ehlert, S. Grimme, ChemRxiv, 2019, preprint.
     DOI: 10.26434/chemrxiv.8326202.v1
   for GFN-FF:
   * S. Spicher and S. Grimme, Angew. Chem. Int. Ed., 2020, 59, 15665-15673.
     DOI: 10.1002/anie.202004239
   
   for DFT-D4:
   * E. Caldeweyher, C. Bannwarth and S. Grimme, J. Chem. Phys., 2017,
     147, 034112. DOI: 10.1063/1.4993215
   * E. Caldeweyher, S. Ehlert, A. Hansen, H. Neugebauer, S. Spicher,
     C. Bannwarth and S. Grimme, J. Chem. Phys., 2019, 150, 154122.
     DOI: 10.1063/1.5090222
   * E. Caldeweyher, J.-M. Mewes, S. Ehlert and S. Grimme, Phys. Chem. Chem. Phys.
     2020, 22, 8499-8512. DOI: 10.1039/D0CP00502A
   
   for sTDA-xTB:
   * S. Grimme and C. Bannwarth, J. Chem. Phys., 2016, 145, 054103.
     DOI: 10.1063/1.4959605
   
   in the mass-spec context:
   * V. Asgeirsson, C. Bauer and S. Grimme, Chem. Sci., 2017, 8, 4879.
     DOI: 10.1039/c7sc00601b
   * J. Koopman and S. Grimme, ACS Omega 2019, 4, 12, 15120-15133.
     DOI: 10.1021/acsomega.9b02011
   
   for metadynamics refer to:
   * S. Grimme, J. Chem. Theory Comput., 2019, 155, 2847-2862
     DOI: 10.1021/acs.jctc.9b00143
   
   for SPH calculations refer to:
   * S. Spicher and S. Grimme, J. Chem. Theory Comput., 2021, 17, 1701-1714
     DOI: 10.1021/acs.jctc.0c01306
   
   with help from (in alphabetical order)
   P. Atkinson, C. Bannwarth, F. Bohle, G. Brandenburg, E. Caldeweyher
   M. Checinski, S. Dohm, S. Ehlert, S. Ehrlich, I. Gerasimov, J. Koopman
   C. Lavigne, S. Lehtola, F. März, M. Müller, F. Musil, H. Neugebauer
   J. Pisarek, C. Plett, P. Pracht, J. Seibert, P. Shushkov, S. Spicher
   M. Stahn, M. Steiner, T. Strunk, J. Stückrath, T. Rose, and J. Unsleber
   
 * started run on 2022/11/02 at 18:13:37.271     

           -------------------------------------------------
          |                Calculation Setup                |
           -------------------------------------------------

          program call               : /lustre/hpc/kemi/borup/pKalculator/dep/xtb-6.4.1/bin/xtb --gfn 2 /lustre/hpc/kemi/borup/pKalculator/calc/test#-1=1/conf04/test#-1=1_conf04_gfn2.xyz --opt --lmo --chrg -1 --uhf 0
          hostname                   : fend01.cluster
          coordinate file            : /lustre/hpc/kemi/borup/pKalculator/calc/test#-1=1/conf04/test#-1=1_conf04_gfn2.xyz
          omp threads                :                     1
          number of atoms            :                    18
          number of electrons        :                    56
          charge                     :                    -1
          spin                       :                   0.0
          first test random number   :      0.94382953468035

   ID    Z sym.   atoms
    1    6 C      1-5, 8-10
    2    7 N      6, 7
    3   16 S      11
    4    1 H      12-18

           -------------------------------------------------
          |                 G F N 2 - x T B                 |
           -------------------------------------------------

        Reference                      10.1021/acs.jctc.8b01176
      * Hamiltonian:
        H0-scaling (s, p, d)           1.850000    2.230000    2.230000
        zeta-weighting                 0.500000
      * Dispersion:
        s8                             2.700000
        a1                             0.520000
        a2                             5.000000
        s9                             5.000000
      * Repulsion:
        kExp                           1.500000    1.000000
        rExp                           1.000000
      * Coulomb:
        alpha                          2.000000
        third order                    shell-resolved
        anisotropic                    true
        a3                             3.000000
        a5                             4.000000
        cn-shift                       1.200000
        cn-exp                         4.000000
        max-rad                        5.000000


          ...................................................
          :                      SETUP                      :
          :.................................................:
          :  # basis functions                  57          :
          :  # atomic orbitals                  56          :
          :  # shells                           30          :
          :  # electrons                        56          :
          :  max. iterations                   250          :
          :  Hamiltonian                  GFN2-xTB          :
          :  restarted?                      false          :
          :  GBSA solvation                  false          :
          :  PC potential                    false          :
          :  electronic temp.          300.0000000     K    :
          :  accuracy                    1.0000000          :
          :  -> integral cutoff          0.2500000E+02      :
          :  -> integral neglect         0.1000000E-07      :
          :  -> SCF convergence          0.1000000E-05 Eh   :
          :  -> wf. convergence          0.1000000E-03 e    :
          :  Broyden damping             0.4000000          :
          ...................................................

 iter      E             dE          RMSdq      gap      omega  full diag
   1    -30.0756881 -0.300757E+02  0.432E+00    2.85       0.0  T
   2    -29.0423350  0.103335E+01  0.681E+00    0.86       1.0  T
   3    -30.2271608 -0.118483E+01  0.267E+00    2.30       1.0  T
   4    -30.2567422 -0.295814E-01  0.162E+00    1.27       1.0  T
   5    -30.2710998 -0.143576E-01  0.108E+00    0.77       1.0  T
   6    -30.2782659 -0.716609E-02  0.664E-01    0.38       1.0  T
   7    -30.2842843 -0.601843E-02  0.261E-01    0.16       1.0  T
   8    -30.2850466 -0.762269E-03  0.875E-02    0.15       1.0  T
   9    -30.2848338  0.212823E-03  0.113E-01    0.13       1.0  T
  10    -30.2839824  0.851365E-03  0.213E-01    0.18       1.0  T
  11    -30.2851618 -0.117937E-02  0.317E-02    0.14       1.0  T
  12    -30.2851492  0.125431E-04  0.363E-02    0.14       1.0  T
  13    -30.2851822 -0.329570E-04  0.955E-03    0.14       2.5  T
  14    -30.2851811  0.106626E-05  0.115E-02    0.14       2.0  T
  15    -30.2851846 -0.349832E-05  0.939E-04    0.14      25.1  T
  16    -30.2851845  0.929768E-07  0.206E-03    0.14      11.4  T
  17    -30.2851846 -0.113348E-06  0.231E-04    0.14     102.2  T
  18    -30.2851846 -0.107094E-08  0.969E-05    0.14     243.3  T

   *** convergence criteria satisfied after 18 iterations ***

         #    Occupation            Energy/Eh            Energy/eV
      -------------------------------------------------------------
         1        2.0000           -0.5762499             -15.6806
       ...           ...                  ...                  ...
        22        2.0000           -0.2452208              -6.6728
        23        2.0000           -0.2369657              -6.4482
        24        2.0000           -0.2313190              -6.2945
        25        2.0000           -0.1932673              -5.2591
        26        2.0000           -0.1834836              -4.9928
        27        2.0000           -0.1676151              -4.5610
        28        1.8790           -0.0906790              -2.4675 (HOMO)
        29        0.1210           -0.0854676              -2.3257 (LUMO)
        30                         -0.0585446              -1.5931
        31                         -0.0350451              -0.9536
        32                          0.0210231               0.5721
        33                          0.0245171               0.6671
       ...                                ...                  ...
        56                          0.8918413              24.2682
      -------------------------------------------------------------
                  HL-Gap            0.0052115 Eh            0.1418 eV
             Fermi-level           -0.0880733 Eh           -2.3966 eV
 
 localization/xTB-IFF output generation
 averaging CT terms over            1  occ. levels
 averaging CT terms over            1  virt. levels
 dipole moment from electron density (au)
     X       Y       Z   
  -2.2563   0.9928   0.9689  total (Debye):    6.732
cpu  time for init local    0.00 s
wall time for init local    0.00 s
 doing rotations ...
 initialization of trafo matrix to unity

 converged in     50 iterations, threshold :   0.99967099D-06
 doing transformations ...
 lmo centers(Z=2) and atoms on file <lmocent.coord>
 LMO Fii/eV  ncent    charge center   contributions...
    1 sigma -11.22   1.97  -5.49960  -0.46363  -0.45352    1C :  0.52    2C :  0.48
    2 sigma -10.98   1.94  -3.86905  -2.29933  -1.58470   11S :  0.59    2C :  0.41
    3 sigma -10.93   1.99  -7.10117  -0.42014   1.09909    1C :  0.50   12H :  0.50
    4 sigma -10.91   1.99   6.26118   3.52715   1.74910    7N :  0.53   16H :  0.47
    5 sigma -10.91   1.99  -6.86297   1.31603  -0.24859    1C :  0.51   13H :  0.50
    6 sigma -10.89   1.97  -7.64863  -0.59616  -1.03699    1C :  0.51   14H :  0.50
    7 sigma -10.75   1.90  -1.82304  -3.41775  -2.29330   11S :  0.61   10C :  0.39
    8 sigma -10.24   1.86   6.33348   1.83088   0.62634    7N :  0.62    8C :  0.39
    9 sigma -10.09   2.00  -0.85931  -0.16022  -0.37815    3C :  0.52    4C :  0.48
   10 LP    -10.03   1.14  -3.96239  -2.96963  -4.84680   11S :  0.93
   11 LP    -10.03   1.14  -3.86962  -5.48278  -0.61614   11S :  0.93
   12 pi     -9.83   1.88   4.82688   2.66610   0.76006    7N :  0.66    6N :  0.32
   13 sigma  -9.77   2.01   0.76766  -3.83360  -2.59077   10C :  0.50   18H :  0.49
   14 sigma  -9.76   2.02  -2.05809   1.54328   0.66577   15H :  0.50    3C :  0.50
   15 pi     -9.60   1.85   4.91222   2.19387   1.45142    7N :  0.67    6N :  0.30
   16 pi     -9.31   2.11  -3.05828  -0.01657  -0.85371    2C :  0.50    3C :  0.48
   17 pi     -9.31   2.10  -3.03832  -0.55225   0.04632    2C :  0.50    3C :  0.48
   18 sigma  -9.20   2.02   1.46781  -0.33967  -0.54193    4C :  0.54    5C :  0.45
   19 sigma  -8.92   1.99   8.35715   0.54812  -0.32537   17H :  0.54    8C :  0.46
   20 pi     -8.76   2.17  -0.01446  -2.15667  -0.98547   10C :  0.50    4C :  0.45
   21 pi     -8.76   2.17  -0.03655  -1.63163  -1.87274   10C :  0.50    4C :  0.45
   22 delpi  -7.90   2.23   2.99685   1.47462   0.03647    6N :  0.50    5C :  0.45
   23 delpi  -7.84   2.26   3.03422   0.96050   0.77153    6N :  0.49    5C :  0.45
   24 sigma  -7.83   2.00   3.87678  -0.31642  -0.65836    5C :  0.56    9C :  0.44
   25 pi     -6.87   2.20   6.01737  -0.16223  -0.07054    8C :  0.56    9C :  0.38
   26 delpi  -6.87   2.20   5.96886   0.37759  -0.89753    8C :  0.55    9C :  0.38
   27 LP     -6.42   1.02   2.10174   3.51745   1.97454    6N :  0.99
   28 LP     -3.63   1.06   5.36984  -2.42599  -2.11835    9C :  0.97
 starting deloc pi regularization ...
 thr    2.20000000000000      # pi deloc LMO           5
 files:
 coordprot.0/xtbscreen.xyz/xtblmoinfo/lmocent.coord
 with protonation site input, xtbdock and
 LMO center info written
 

 SCC (total)                   0 d,  0 h,  0 min,  0.054 sec
 SCC setup                      ...        0 min,  0.000 sec (  0.573%)
 Dispersion                     ...        0 min,  0.000 sec (  0.439%)
 classical contributions        ...        0 min,  0.000 sec (  0.109%)
 integral evaluation            ...        0 min,  0.005 sec (  8.650%)
 iterations                     ...        0 min,  0.021 sec ( 38.206%)
 molecular gradient             ...        0 min,  0.010 sec ( 17.673%)
 printout                       ...        0 min,  0.019 sec ( 34.248%)

         :::::::::::::::::::::::::::::::::::::::::::::::::::::
         ::                     SUMMARY                     ::
         :::::::::::::::::::::::::::::::::::::::::::::::::::::
         :: total energy             -29.863687623795 Eh    ::
         :: gradient norm              0.107277268929 Eh/a0 ::
         :: HOMO-LUMO gap              0.141810997912 eV    ::
         ::.................................................::
         :: SCC energy               -30.285184629343 Eh    ::
         :: -> isotropic ES            0.121841250861 Eh    ::
         :: -> anisotropic ES          0.007252996612 Eh    ::
         :: -> anisotropic XC          0.018007933843 Eh    ::
         :: -> dispersion             -0.018302693327 Eh    ::
         :: repulsion energy           0.421543795120 Eh    ::
         :: add. restraining           0.000000000000 Eh    ::
         :: total charge              -1.000000000000 e     ::
         :::::::::::::::::::::::::::::::::::::::::::::::::::::

      ----------------------------------------------------------- 
     |                   =====================                   |
     |                        A N C O P T                        |
     |                   =====================                   |
     |               Approximate Normal Coordinate               |
     |                Rational Function Optimizer                |
      ----------------------------------------------------------- 

          ...................................................
          :                      SETUP                      :
          :.................................................:
          :   optimization level            normal          :
          :   max. optcycles                   200          :
          :   ANC micro-cycles                  20          :
          :   degrees of freedom                48          :
          :.................................................:
          :   RF solver                   davidson          :
          :   write xtbopt.log                true          :
          :   linear?                        false          :
          :   energy convergence         0.5000000E-05 Eh   :
          :   grad. convergence          0.1000000E-02 Eh/α :
          :   maximium RF displ.         1.0000000          :
          :   Hlow (freq-cutoff)         0.1000000E-01      :
          :   Hmax (freq-cutoff)         5.0000000          :
          :   S6 in model hess.         20.0000000          :
          ...................................................

generating ANC from model Hessian ...
Using Lindh-Hessian (1995)
 Shifting diagonal of input Hessian by   8.074224494425802E-003
 Lowest  eigenvalues of input Hessian
    0.000000    0.000000    0.000000    0.000000    0.000000    0.000000
    0.010000    0.012012    0.012628    0.015666    0.019102    0.023861
    0.030601    0.042335    0.043815    0.050203    0.054882    0.060992
 Highest eigenvalues
    1.671400    1.734389    1.846905    1.902100    1.971137    2.034383
 

........................................................................
.............................. CYCLE    1 ..............................
........................................................................
   1    -30.2851846 -0.302852E+02  0.800E-05    0.14       0.0  T
   2    -30.2851846  0.235823E-07  0.912E-04    0.14      25.8  T
   3    -30.2851846 -0.237402E-07  0.230E-05    0.14    1024.0  T
     SCC iter.                  ...        0 min,  0.007 sec
     gradient                   ...        0 min,  0.016 sec
 * total energy  :   -29.8636876 Eh     change       -0.2367528E-09 Eh
   gradient norm :     0.1072784 Eh/α   predicted     0.0000000E+00 (-100.00%)
   displ. norm   :     0.2423087 α      lambda       -0.1602331E-01
   maximum displ.:     0.0832227 α      in ANC's #27, #7, #13, ...

........................................................................
.............................. CYCLE    2 ..............................
........................................................................
   1    -30.2855232 -0.302855E+02  0.505E-01    0.47       0.0  T
   2    -29.5198659  0.765657E+00  0.505E+00    0.10       1.0  T
   3    -30.2859346 -0.766069E+00  0.363E-01    0.41       1.0  T
   4    -30.2862812 -0.346620E-03  0.255E-01    0.37       1.0  T
   5    -30.2864461 -0.164894E-03  0.242E-01    0.35       1.0  T
   6    -30.2865286 -0.825222E-04  0.228E-01    0.34       1.0  T
   7    -30.2866951 -0.166494E-03  0.210E-01    0.32       1.0  T
   8    -30.2868566 -0.161437E-03  0.191E-01    0.30       1.0  T
   9    -30.2869468 -0.901961E-04  0.180E-01    0.29       1.0  T
  10    -30.2871620 -0.215272E-03  0.152E-01    0.26       1.0  T
  11    -30.2876061 -0.444113E-03  0.682E-02    0.22       1.0  T
  12    -30.2877236 -0.117470E-03  0.214E-03    0.19      11.0  T
  13    -30.2877213  0.228699E-05  0.954E-03    0.20       2.5  T
  14    -30.2877229 -0.156112E-05  0.537E-03    0.19       4.4  T
  15    -30.2877236 -0.744630E-06  0.670E-04    0.19      35.2  T
  16    -30.2877236 -0.971875E-08  0.271E-04    0.19      86.9  T
     SCC iter.                  ...        0 min,  0.024 sec
     gradient                   ...        0 min,  0.009 sec
 * total energy  :   -29.8750059 Eh     change       -0.1131828E-01 Eh
   gradient norm :     0.0461959 Eh/α   predicted    -0.8482039E-02 ( -25.06%)
   displ. norm   :     0.2327653 α      lambda       -0.5744032E-02
   maximum displ.:     0.1136566 α      in ANC's #7, #13, #9, ...

........................................................................
.............................. CYCLE    3 ..............................
........................................................................
   1    -30.2886044 -0.302886E+02  0.334E-01    0.45       0.0  T
   2    -30.2887559 -0.151462E-03  0.220E-01    0.27       1.0  T
   3    -30.2886632  0.926816E-04  0.118E-01    0.42       1.0  T
   4    -30.2888849 -0.221674E-03  0.316E-02    0.32       1.0  T
   5    -30.2888887 -0.385065E-05  0.182E-02    0.32       1.3  T
   6    -30.2888889 -0.208254E-06  0.113E-02    0.32       2.1  T
   7    -30.2888900 -0.105231E-05  0.405E-03    0.32       5.8  T
   8    -30.2888901 -0.135138E-06  0.132E-03    0.32      17.9  T
   9    -30.2888901  0.154179E-08  0.849E-04    0.32      27.8  T
  10    -30.2888901 -0.849937E-08  0.188E-04    0.32     125.5  T
     SCC iter.                  ...        0 min,  0.011 sec
     gradient                   ...        0 min,  0.009 sec
 * total energy  :   -29.8782101 Eh     change       -0.3204210E-02 Eh
   gradient norm :     0.0108110 Eh/α   predicted    -0.3027622E-02 (  -5.51%)
   displ. norm   :     0.0835942 α      lambda       -0.2940507E-03
   maximum displ.:     0.0666472 α      in ANC's #7, #3, #13, ...

........................................................................
.............................. CYCLE    4 ..............................
........................................................................
   1    -30.2891732 -0.302892E+02  0.574E-02    0.35       0.0  T
   2    -30.2891754 -0.216427E-05  0.367E-02    0.34       1.0  T
   3    -30.2891737  0.169740E-05  0.234E-02    0.35       1.0  T
   4    -30.2891800 -0.628500E-05  0.537E-03    0.35       4.4  T
   5    -30.2891802 -0.246011E-06  0.314E-03    0.35       7.5  T
   6    -30.2891803 -0.667082E-07  0.117E-03    0.35      20.1  T
   7    -30.2891803 -0.983462E-09  0.623E-04    0.35      37.9  T
   8    -30.2891803 -0.267378E-08  0.302E-04    0.35      78.0  T
     SCC iter.                  ...        0 min,  0.009 sec
     gradient                   ...        0 min,  0.010 sec
 * total energy  :   -29.8784167 Eh     change       -0.2065901E-03 Eh
   gradient norm :     0.0058899 Eh/α   predicted    -0.1480525E-03 ( -28.34%)
   displ. norm   :     0.0957530 α      lambda       -0.1595397E-03
   maximum displ.:     0.0703766 α      in ANC's #7, #3, #2, ...

........................................................................
.............................. CYCLE    5 ..............................
........................................................................
   1    -30.2897547 -0.302898E+02  0.505E-02    0.35       0.0  T
   2    -30.2897559 -0.126901E-05  0.301E-02    0.34       1.0  T
   3    -30.2897538  0.210319E-05  0.210E-02    0.35       1.1  T
   4    -30.2897588 -0.497992E-05  0.462E-03    0.35       5.1  T
   5    -30.2897590 -0.212992E-06  0.194E-03    0.34      12.2  T
   6    -30.2897590 -0.226933E-07  0.602E-04    0.35      39.2  T
   7    -30.2897590 -0.304238E-08  0.245E-04    0.34      96.4  T
     SCC iter.                  ...        0 min,  0.009 sec
     gradient                   ...        0 min,  0.010 sec
 * total energy  :   -29.8785160 Eh     change       -0.9930589E-04 Eh
   gradient norm :     0.0031997 Eh/α   predicted    -0.8049954E-04 ( -18.94%)
   displ. norm   :     0.0643840 α      lambda       -0.4158505E-04
   maximum displ.:     0.0452436 α      in ANC's #3, #7, #2, ...

........................................................................
.............................. CYCLE    6 ..............................
........................................................................
   1    -30.2901318 -0.302901E+02  0.294E-02    0.34       0.0  T
   2    -30.2901321 -0.298296E-06  0.166E-02    0.34       1.4  T
   3    -30.2901308  0.136497E-05  0.125E-02    0.34       1.9  T
   4    -30.2901328 -0.200508E-05  0.226E-03    0.34      10.4  T
   5    -30.2901328 -0.389554E-07  0.101E-03    0.34      23.4  T
   6    -30.2901328 -0.795630E-08  0.473E-04    0.34      49.8  T
   7    -30.2901328 -0.159645E-08  0.195E-04    0.34     120.9  T
     SCC iter.                  ...        0 min,  0.008 sec
     gradient                   ...        0 min,  0.010 sec
 * total energy  :   -29.8785474 Eh     change       -0.3135625E-04 Eh
   gradient norm :     0.0025018 Eh/α   predicted    -0.2087849E-04 ( -33.42%)
   displ. norm   :     0.0967982 α      lambda       -0.4321356E-04
   maximum displ.:     0.0705981 α      in ANC's #3, #2, #5, ...

........................................................................
.............................. CYCLE    7 ..............................
........................................................................
   1    -30.2904043 -0.302904E+02  0.427E-02    0.34       0.0  T
   2    -30.2904051 -0.823314E-06  0.255E-02    0.34       1.0  T
   3    -30.2904031  0.202600E-05  0.183E-02    0.34       1.3  T
   4    -30.2904071 -0.404962E-05  0.313E-03    0.34       7.5  T
   5    -30.2904072 -0.806342E-07  0.151E-03    0.34      15.7  T
   6    -30.2904072 -0.221096E-07  0.670E-04    0.34      35.2  T
   7    -30.2904072 -0.220917E-08  0.286E-04    0.34      82.5  T
     SCC iter.                  ...        0 min,  0.008 sec
     gradient                   ...        0 min,  0.009 sec
 * total energy  :   -29.8785784 Eh     change       -0.3099222E-04 Eh
   gradient norm :     0.0018263 Eh/α   predicted    -0.2180930E-04 ( -29.63%)
   displ. norm   :     0.1291824 α      lambda       -0.2761822E-04
   maximum displ.:     0.0858169 α      in ANC's #3, #2, #5, ...

........................................................................
.............................. CYCLE    8 ..............................
........................................................................
   1    -30.2904078 -0.302904E+02  0.570E-02    0.34       0.0  T
   2    -30.2904091 -0.130374E-05  0.348E-02    0.34       1.0  T
   3    -30.2904053  0.384741E-05  0.243E-02    0.34       1.0  T
   4    -30.2904126 -0.728614E-05  0.369E-03    0.34       6.4  T
   5    -30.2904127 -0.130181E-06  0.183E-03    0.34      12.9  T
   6    -30.2904127 -0.324715E-07  0.733E-04    0.34      32.2  T
   7    -30.2904127 -0.206805E-08  0.339E-04    0.34      69.5  T
     SCC iter.                  ...        0 min,  0.008 sec
     gradient                   ...        0 min,  0.009 sec
 * total energy  :   -29.8786063 Eh     change       -0.2791650E-04 Eh
   gradient norm :     0.0023897 Eh/α   predicted    -0.1391099E-04 ( -50.17%)
   displ. norm   :     0.0805615 α      lambda       -0.2240432E-04
   maximum displ.:     0.0438803 α      in ANC's #3, #2, #5, ...

........................................................................
.............................. CYCLE    9 ..............................
........................................................................
   1    -30.2903775 -0.302904E+02  0.349E-02    0.34       0.0  T
   2    -30.2903777 -0.220078E-06  0.211E-02    0.34       1.1  T
   3    -30.2903752  0.250576E-05  0.147E-02    0.34       1.6  T
   4    -30.2903784 -0.320616E-05  0.174E-03    0.34      13.6  T
   5    -30.2903784 -0.263783E-07  0.975E-04    0.34      24.2  T
   6    -30.2903784 -0.728514E-08  0.355E-04    0.34      66.3  T
     SCC iter.                  ...        0 min,  0.007 sec
     gradient                   ...        0 min,  0.010 sec
 * total energy  :   -29.8786250 Eh     change       -0.1875776E-04 Eh
   gradient norm :     0.0023587 Eh/α   predicted    -0.1127494E-04 ( -39.89%)
   displ. norm   :     0.1605972 α      lambda       -0.4186831E-04
   maximum displ.:     0.0903238 α      in ANC's #2, #5, #4, ...

........................................................................
.............................. CYCLE   10 ..............................
........................................................................
   1    -30.2900547 -0.302901E+02  0.678E-02    0.35       0.0  T
   2    -30.2900553 -0.599817E-06  0.404E-02    0.35       1.0  T
   3    -30.2900460  0.923992E-05  0.260E-02    0.35       1.0  T
   4    -30.2900568 -0.107762E-04  0.290E-03    0.35       8.1  T
   5    -30.2900569 -0.502949E-07  0.178E-03    0.35      13.2  T
   6    -30.2900569 -0.235236E-07  0.615E-04    0.35      38.3  T
   7    -30.2900569 -0.183519E-08  0.305E-04    0.35      77.2  T
     SCC iter.                  ...        0 min,  0.008 sec
     gradient                   ...        0 min,  0.010 sec
 * total energy  :   -29.8786525 Eh     change       -0.2747768E-04 Eh
   gradient norm :     0.0027404 Eh/α   predicted    -0.2147297E-04 ( -21.85%)
   displ. norm   :     0.0831159 α      lambda       -0.2363808E-04
   maximum displ.:     0.0488385 α      in ANC's #2, #5, #4, ...

........................................................................
.............................. CYCLE   11 ..............................
........................................................................
   1    -30.2902196 -0.302902E+02  0.344E-02    0.35       0.0  T
   2    -30.2902198 -0.176798E-06  0.203E-02    0.35       1.2  T
   3    -30.2902186  0.115822E-05  0.859E-03    0.35       2.7  T
   4    -30.2902199 -0.129782E-05  0.140E-03    0.35      16.8  T
   5    -30.2902199 -0.100945E-07  0.844E-04    0.35      27.9  T
   6    -30.2902199 -0.537618E-08  0.310E-04    0.35      75.9  T
     SCC iter.                  ...        0 min,  0.007 sec
     gradient                   ...        0 min,  0.010 sec
 * total energy  :   -29.8786714 Eh     change       -0.1891842E-04 Eh
   gradient norm :     0.0023024 Eh/α   predicted    -0.1190150E-04 ( -37.09%)
   displ. norm   :     0.1565004 α      lambda       -0.4670946E-04
   maximum displ.:     0.0929367 α      in ANC's #2, #4, #5, ...

........................................................................
.............................. CYCLE   12 ..............................
........................................................................
   1    -30.2902014 -0.302902E+02  0.620E-02    0.35       0.0  T
   2    -30.2902020 -0.547438E-06  0.367E-02    0.35       1.0  T
   3    -30.2901982  0.374827E-05  0.147E-02    0.35       1.6  T
   4    -30.2902025 -0.427512E-05  0.214E-03    0.35      11.0  T
   5    -30.2902025 -0.205917E-07  0.121E-03    0.35      19.4  T
   6    -30.2902025 -0.722301E-08  0.578E-04    0.35      40.8  T
   7    -30.2902025 -0.288464E-08  0.171E-04    0.35     137.6  T
     SCC iter.                  ...        0 min,  0.008 sec
     gradient                   ...        0 min,  0.010 sec
 * total energy  :   -29.8787074 Eh     change       -0.3595309E-04 Eh
   gradient norm :     0.0026397 Eh/α   predicted    -0.2392557E-04 ( -33.45%)
   displ. norm   :     0.2030887 α      lambda       -0.6240595E-04
   maximum displ.:     0.1170103 α      in ANC's #2, #4, #5, ...

........................................................................
.............................. CYCLE   13 ..............................
........................................................................
   1    -30.2900186 -0.302900E+02  0.784E-02    0.35       0.0  T
   2    -30.2900194 -0.765473E-06  0.464E-02    0.35       1.0  T
   3    -30.2900119  0.744884E-05  0.212E-02    0.35       1.1  T
   4    -30.2900205 -0.853168E-05  0.267E-03    0.35       8.8  T
   5    -30.2900205 -0.196785E-07  0.156E-03    0.35      15.1  T
   6    -30.2900205 -0.180853E-07  0.634E-04    0.35      37.2  T
   7    -30.2900205 -0.374171E-08  0.259E-04    0.35      91.1  T
     SCC iter.                  ...        0 min,  0.008 sec
     gradient                   ...        0 min,  0.010 sec
 * total energy  :   -29.8787533 Eh     change       -0.4593360E-04 Eh
   gradient norm :     0.0041391 Eh/α   predicted    -0.3249184E-04 ( -29.26%)
   displ. norm   :     0.1723578 α      lambda       -0.7442909E-04
   maximum displ.:     0.0858966 α      in ANC's #2, #3, #4, ...

........................................................................
.............................. CYCLE   14 ..............................
........................................................................
   1    -30.2909528 -0.302910E+02  0.640E-02    0.34       0.0  T
   2    -30.2909537 -0.938155E-06  0.383E-02    0.34       1.0  T
   3    -30.2909460  0.771185E-05  0.252E-02    0.34       1.0  T
   4    -30.2909556 -0.957006E-05  0.322E-03    0.34       7.3  T
   5    -30.2909557 -0.790933E-07  0.182E-03    0.34      12.9  T
   6    -30.2909557 -0.262852E-07  0.691E-04    0.34      34.1  T
   7    -30.2909557 -0.242524E-08  0.303E-04    0.34      77.8  T
     SCC iter.                  ...        0 min,  0.008 sec
     gradient                   ...        0 min,  0.010 sec
 * total energy  :   -29.8788001 Eh     change       -0.4680055E-04 Eh
   gradient norm :     0.0045699 Eh/α   predicted    -0.3831841E-04 ( -18.12%)
   displ. norm   :     0.5528375 α      lambda       -0.1466110E-03
   maximum displ.:     0.3199535 α      in ANC's #2, #4, #5, ...

........................................................................
.............................. CYCLE   15 ..............................
........................................................................
   1    -30.2827713 -0.302828E+02  0.231E-01    0.34       0.0  T
   2    -30.2827933 -0.220381E-04  0.133E-01    0.35       1.0  T
   3    -30.2827655  0.278762E-04  0.464E-02    0.33       1.0  T
   4    -30.2827963 -0.308615E-04  0.155E-02    0.35       1.5  T
   5    -30.2827991 -0.275676E-05  0.556E-03    0.35       4.2  T
   6    -30.2827991 -0.235704E-07  0.343E-03    0.34       6.9  T
   7    -30.2827992 -0.138923E-06  0.796E-04    0.34      29.6  T
   8    -30.2827992 -0.967081E-09  0.433E-04    0.34      54.4  T
     SCC iter.                  ...        0 min,  0.009 sec
     gradient                   ...        0 min,  0.010 sec
 * total energy  :   -29.8783041 Eh     change        0.4960015E-03 Eh
   gradient norm :     0.0205794 Eh/α   predicted    -0.9571411E-04 (-119.30%)
   displ. norm   :     0.3550948 α      lambda       -0.1458559E-02
   maximum displ.:     0.2058934 α      in ANC's #2, #4, #5, ...

........................................................................
.............................. CYCLE   16 ..............................
........................................................................
   1    -30.2910610 -0.302911E+02  0.161E-01    0.34       0.0  T
   2    -30.2910781 -0.171692E-04  0.924E-02    0.34       1.0  T
   3    -30.2910705  0.765480E-05  0.282E-02    0.35       1.0  T
   4    -30.2910787 -0.818500E-05  0.119E-02    0.34       2.0  T
   5    -30.2910808 -0.215198E-05  0.406E-03    0.34       5.8  T
   6    -30.2910808  0.266936E-07  0.222E-03    0.34      10.6  T
   7    -30.2910809 -0.791906E-07  0.640E-04    0.34      36.8  T
   8    -30.2910809  0.264322E-10  0.350E-04    0.34      67.3  T
     SCC iter.                  ...        0 min,  0.010 sec
     gradient                   ...        0 min,  0.010 sec
 * total energy  :   -29.8788560 Eh     change       -0.5518806E-03 Eh
   gradient norm :     0.0024180 Eh/α   predicted    -0.8212407E-03 (  48.81%)
   displ. norm   :     0.0287120 α      lambda       -0.1552219E-04
   maximum displ.:     0.0149626 α      in ANC's #4, #2, #5, ...

........................................................................
.............................. CYCLE   17 ..............................
........................................................................
   1    -30.2908984 -0.302909E+02  0.134E-02    0.34       0.0  T
   2    -30.2908985 -0.156031E-06  0.811E-03    0.34       2.9  T
   3    -30.2908984  0.167619E-06  0.508E-03    0.34       4.6  T
   4    -30.2908987 -0.328929E-06  0.113E-03    0.34      20.8  T
   5    -30.2908987 -0.109674E-07  0.399E-04    0.34      59.1  T
   6    -30.2908987 -0.120809E-08  0.209E-04    0.34     113.0  T
     SCC iter.                  ...        0 min,  0.007 sec
     gradient                   ...        0 min,  0.010 sec
 * total energy  :   -29.8788686 Eh     change       -0.1262529E-04 Eh
   gradient norm :     0.0013637 Eh/α   predicted    -0.7767475E-05 ( -38.48%)
   displ. norm   :     0.1404278 α      lambda       -0.2746062E-04
   maximum displ.:     0.0738331 α      in ANC's #4, #2, #5, ...

........................................................................
.............................. CYCLE   18 ..............................
........................................................................
   1    -30.2901870 -0.302902E+02  0.517E-02    0.34       0.0  T
   2    -30.2901886 -0.166693E-05  0.309E-02    0.34       1.0  T
   3    -30.2901851  0.354381E-05  0.180E-02    0.34       1.3  T
   4    -30.2901899 -0.486386E-05  0.377E-03    0.34       6.2  T
   5    -30.2901901 -0.141706E-06  0.115E-03    0.34      20.5  T
   6    -30.2901901 -0.511639E-08  0.650E-04    0.34      36.3  T
   7    -30.2901901 -0.338381E-08  0.202E-04    0.34     116.7  T
     SCC iter.                  ...        0 min,  0.008 sec
     gradient                   ...        0 min,  0.010 sec
 * total energy  :   -29.8788825 Eh     change       -0.1392300E-04 Eh
   gradient norm :     0.0034361 Eh/α   predicted    -0.1385152E-04 (  -0.51%)
   displ. norm   :     0.0075276 α      lambda       -0.1137811E-04
   maximum displ.:     0.0045025 α      in ANC's #3, #1, #7, ...

........................................................................
.............................. CYCLE   19 ..............................
........................................................................
   1    -30.2905014 -0.302905E+02  0.704E-03    0.34       0.0  T
   2    -30.2905015 -0.823535E-07  0.422E-03    0.34       5.6  T
   3    -30.2905015  0.106438E-07  0.267E-03    0.34       8.8  T
   4    -30.2905016 -0.696308E-07  0.773E-04    0.34      30.5  T
   5    -30.2905016 -0.467157E-08  0.271E-04    0.34      86.9  T
     SCC iter.                  ...        0 min,  0.006 sec
     gradient                   ...        0 min,  0.010 sec
 * total energy  :   -29.8788918 Eh     change       -0.9269129E-05 Eh
   gradient norm :     0.0022329 Eh/α   predicted    -0.5690157E-05 ( -38.61%)
   displ. norm   :     0.0633137 α      lambda       -0.2421673E-04
   maximum displ.:     0.0299638 α      in ANC's #4, #5, #1, ...

........................................................................
.............................. CYCLE   20 ..............................
........................................................................
   1    -30.2909117 -0.302909E+02  0.193E-02    0.34       0.0  T
   2    -30.2909119 -0.236996E-06  0.118E-02    0.34       2.0  T
   3    -30.2909114  0.443698E-06  0.748E-03    0.34       3.2  T
   4    -30.2909122 -0.716399E-06  0.129E-03    0.34      18.2  T
   5    -30.2909122 -0.138162E-07  0.564E-04    0.34      41.8  T
   6    -30.2909122 -0.249488E-08  0.278E-04    0.34      84.9  T
     SCC iter.                  ...        0 min,  0.007 sec
     gradient                   ...        0 min,  0.010 sec
 * total energy  :   -29.8789094 Eh     change       -0.1757642E-04 Eh
   gradient norm :     0.0006711 Eh/α   predicted    -0.1215701E-04 ( -30.83%)
   displ. norm   :     0.2203321 α      lambda       -0.2647401E-04
   maximum displ.:     0.1123815 α      in ANC's #4, #5, #2, ...
 * RMSD in coord.:     0.4160525 α      energy gain  -0.1522176E-01 Eh

generating ANC from model Hessian ...
Using Lindh-Hessian (1995)
 Shifting diagonal of input Hessian by   7.954401861692571E-003
 Lowest  eigenvalues of input Hessian
    0.000000    0.000000    0.000000    0.000000    0.000000    0.000000
    0.010000    0.012091    0.012992    0.015641    0.018549    0.024412
    0.031400    0.042222    0.043869    0.046890    0.055284    0.061868
 Highest eigenvalues
    1.646171    1.740874    1.888811    1.933616    1.959184    2.022183
 

........................................................................
.............................. CYCLE   21 ..............................
........................................................................
   1    -30.2902699 -0.302903E+02  0.589E-02    0.34       0.0  T
   2    -30.2902702 -0.371299E-06  0.353E-02    0.34       1.0  T
   3    -30.2902666  0.364700E-05  0.151E-02    0.34       1.6  T
   4    -30.2902707 -0.412610E-05  0.219E-03    0.34      10.8  T
   5    -30.2902707 -0.971908E-08  0.120E-03    0.34      19.7  T
   6    -30.2902707 -0.123104E-07  0.434E-04    0.34      54.3  T
   7    -30.2902707 -0.198694E-08  0.198E-04    0.34     119.1  T
     SCC iter.                  ...        0 min,  0.008 sec
     gradient                   ...        0 min,  0.010 sec
 * total energy  :   -29.8789362 Eh     change       -0.2684486E-04 Eh
   gradient norm :     0.0025552 Eh/α   predicted     0.0000000E+00 (-100.00%)
   displ. norm   :     0.0154796 α      lambda       -0.1134325E-04
   maximum displ.:     0.0101628 α      in ANC's #3, #4, #5, ...

........................................................................
.............................. CYCLE   22 ..............................
........................................................................
   1    -30.2908055 -0.302908E+02  0.861E-03    0.34       0.0  T
   2    -30.2908056 -0.100223E-06  0.549E-03    0.34       4.3  T
   3    -30.2908056 -0.389946E-07  0.343E-03    0.34       6.9  T
   4    -30.2908057 -0.879126E-07  0.818E-04    0.34      28.8  T
   5    -30.2908057 -0.563218E-08  0.380E-04    0.34      62.1  T
     SCC iter.                  ...        0 min,  0.006 sec
     gradient                   ...        0 min,  0.009 sec
 * total energy  :   -29.8789443 Eh     change       -0.8024795E-05 Eh
   gradient norm :     0.0010652 Eh/α   predicted    -0.5671805E-05 ( -29.32%)
   displ. norm   :     0.0385644 α      lambda       -0.6779398E-05
   maximum displ.:     0.0263071 α      in ANC's #3, #4, #1, ...

........................................................................
.............................. CYCLE   23 ..............................
........................................................................
   1    -30.2913515 -0.302914E+02  0.181E-02    0.34       0.0  T
   2    -30.2913517 -0.235478E-06  0.116E-02    0.34       2.0  T
   3    -30.2913517 -0.170931E-07  0.739E-03    0.34       3.2  T
   4    -30.2913522 -0.497050E-06  0.149E-03    0.34      15.8  T
   5    -30.2913522 -0.236053E-07  0.690E-04    0.34      34.1  T
   6    -30.2913522 -0.353550E-08  0.262E-04    0.34      89.9  T
     SCC iter.                  ...        0 min,  0.007 sec
     gradient                   ...        0 min,  0.010 sec
 * total energy  :   -29.8789498 Eh     change       -0.5544543E-05 Eh
   gradient norm :     0.0011547 Eh/α   predicted    -0.3393109E-05 ( -38.80%)
   displ. norm   :     0.0318168 α      lambda       -0.3456202E-05
   maximum displ.:     0.0191590 α      in ANC's #3, #4, #1, ...

........................................................................
.............................. CYCLE   24 ..............................
........................................................................
   1    -30.2912592 -0.302913E+02  0.127E-02    0.34       0.0  T
   2    -30.2912593 -0.497290E-07  0.764E-03    0.34       3.1  T
   3    -30.2912590  0.262685E-06  0.541E-03    0.34       4.4  T
   4    -30.2912594 -0.389883E-06  0.845E-04    0.34      27.9  T
   5    -30.2912594 -0.572148E-08  0.437E-04    0.34      54.0  T
     SCC iter.                  ...        0 min,  0.006 sec
     gradient                   ...        0 min,  0.010 sec
 * total energy  :   -29.8789542 Eh     change       -0.4428754E-05 Eh
   gradient norm :     0.0011357 Eh/α   predicted    -0.1729114E-05 ( -60.96%)
   displ. norm   :     0.1087399 α      lambda       -0.9908545E-05
   maximum displ.:     0.0601134 α      in ANC's #4, #3, #1, ...

........................................................................
.............................. CYCLE   25 ..............................
........................................................................
   1    -30.2908019 -0.302908E+02  0.482E-02    0.34       0.0  T
   2    -30.2908023 -0.366793E-06  0.282E-02    0.34       1.0  T
   3    -30.2907978  0.453339E-05  0.187E-02    0.34       1.3  T
   4    -30.2908032 -0.544029E-05  0.244E-03    0.34       9.7  T
   5    -30.2908032 -0.264043E-07  0.139E-03    0.34      16.9  T
   6    -30.2908032 -0.154790E-07  0.494E-04    0.34      47.7  T
   7    -30.2908033 -0.224944E-08  0.199E-04    0.34     118.4  T
     SCC iter.                  ...        0 min,  0.008 sec
     gradient                   ...        0 min,  0.010 sec
 * total energy  :   -29.8789619 Eh     change       -0.7643753E-05 Eh
   gradient norm :     0.0011643 Eh/α   predicted    -0.4980426E-05 ( -34.84%)
   displ. norm   :     0.0296418 α      lambda       -0.2919287E-05
   maximum displ.:     0.0190163 α      in ANC's #4, #1, #5, ...

........................................................................
.............................. CYCLE   26 ..............................
........................................................................
   1    -30.2908649 -0.302909E+02  0.120E-02    0.34       0.0  T
   2    -30.2908649 -0.281443E-07  0.697E-03    0.34       3.4  T
   3    -30.2908647  0.151386E-06  0.332E-03    0.34       7.1  T
   4    -30.2908649 -0.175853E-06  0.686E-04    0.34      34.4  T
   5    -30.2908649 -0.180091E-08  0.403E-04    0.34      58.4  T
     SCC iter.                  ...        0 min,  0.006 sec
     gradient                   ...        0 min,  0.009 sec
 * total energy  :   -29.8789646 Eh     change       -0.2684027E-05 Eh
   gradient norm :     0.0008506 Eh/α   predicted    -0.1460799E-05 ( -45.57%)
   displ. norm   :     0.0397602 α      lambda       -0.3430905E-05
   maximum displ.:     0.0246365 α      in ANC's #4, #5, #1, ...

   *** GEOMETRY OPTIMIZATION CONVERGED AFTER 26 ITERATIONS ***

------------------------------------------------------------------------
 total energy gain   :        -0.0152769 Eh       -9.5864 kcal/mol
 total RMSD          :         0.4500628 a0        0.2382 Å
 total power (kW/mol):        -1.5426761 (step)  -63.5528 (real)
------------------------------------------------------------------------

 ANCopt (total)                0 d,  0 h,  0 min,  0.631 sec
 optimizer setup                ...        0 min,  0.001 sec (  0.096%)
 model hessian                  ...        0 min,  0.007 sec (  1.101%)
 ANC generation                 ...        0 min,  0.002 sec (  0.293%)
 coordinate transformation      ...        0 min,  0.000 sec (  0.061%)
 single point calculation       ...        0 min,  0.608 sec ( 96.400%)
 optimization log               ...        0 min,  0.005 sec (  0.794%)
 hessian update                 ...        0 min,  0.000 sec (  0.060%)
 rational function              ...        0 min,  0.005 sec (  0.840%)

================
 final structure:
================
18
 xtb: 6.4.1 (afa7bdf)
C        -3.56341899053064   -0.01095236862216   -0.07292090274968
C        -2.15166282551528   -0.41371851341922   -0.33714737527870
C        -1.01042210129757    0.23327270780008   -0.01654883079295
C         0.18781979913530   -0.44439471295833   -0.41288375019032
C         1.51302131093819    0.05489744880783   -0.17401015034068
N         1.65341535071162    1.24081009749200    0.46229337810943
N         2.97844739648175    1.40492699734584    0.52242344010803
C         3.64150922106994    0.34206206660180   -0.06430678814880
C         2.74949302310480   -0.59816537370732   -0.55020318238350
C        -0.10041571602860   -1.62078276454512   -1.04136308417631
S        -1.80700383661645   -1.91753174093695   -1.15792799479856
H        -4.04030520419908   -0.69968496198861    0.62840955910259
H        -3.58583546387818    0.99123358657091    0.35325664456643
H        -4.14855493053254   -0.01607416414305   -0.99424805782664
H        -0.97939141053182    1.18084574527208    0.49360364748064
H         3.35279292576061    2.23720025133738    0.96368987012422
H         4.72711040027977    0.37392059547245   -0.07009871050154
H         0.58340205164826   -2.33786289637954   -1.44620871230374
 
 Bond Distances (Angstroems)
 ---------------------------
C1-C2=1.4917         C1-H12=1.0925        C1-H13=1.0893        C1-H14=1.0914        C2-C1=1.4917         C2-C3=1.3505         
C2-S11=1.7475        C3-C2=1.3505         C3-C4=1.4325         C3-H15=1.0766        C4-C3=1.4325         C4-C5=1.4361         
C4-C10=1.3645        C5-C4=1.4361         C5-N6=1.3531         C5-C9=1.4481         N6-C5=1.3531         N6-N7=1.3365         
N7-N6=1.3365         N7-C8=1.3833         N7-H16=1.0137        C8-N7=1.3833         C8-C9=1.3841         C8-H17=1.0861        
C9-C5=1.4481         C9-C8=1.3841         C10-C4=1.3645        C10-S11=1.7361       C10-H18=1.0704       S11-C2=1.7475        
S11-C10=1.7361       H12-C1=1.0925        H13-C1=1.0893        H14-C1=1.0914        H15-C3=1.0766        H16-N7=1.0137        
H17-C8=1.0861        H18-C10=1.0704       
 C  H  Rav=1.0844 sigma=0.0082  Rmin=1.0704  Rmax=1.0925     6
 C  C  Rav=1.4154 sigma=0.0469  Rmin=1.3505  Rmax=1.4917     7
 N  H  Rav=1.0137 sigma=0.0000  Rmin=1.0137  Rmax=1.0137     1
 N  C  Rav=1.3682 sigma=0.0151  Rmin=1.3531  Rmax=1.3833     2
 N  N  Rav=1.3365 sigma=0.0000  Rmin=1.3365  Rmax=1.3365     1
 S  C  Rav=1.7418 sigma=0.0057  Rmin=1.7361  Rmax=1.7475     2
 
 selected bond angles (degree)
 --------------------
H12-C1-C2=110.89               H13-C1-C2=109.71               H13-C1-H12=108.65              H14-C1-C2=110.89               
H14-C1-H12=107.75              H14-C1-H13=108.88              C3-C2-C1=128.93                S11-C2-C1=120.15               
S11-C2-C3=110.92               C4-C3-C2=114.49                H15-C3-C2=123.95               H15-C3-C4=121.56               
C5-C4-C3=124.15                C10-C4-C3=111.01               C10-C4-C5=124.84               N6-C5-C4=118.60                
C9-C5-C4=126.01                C9-C5-N6=115.39                N7-N6-C5=103.39                C8-N7-N6=111.21                
H16-N7-N6=119.11               H16-N7-C8=129.68               C9-C8-N7=111.22                H17-C8-N7=117.31               
H17-C8-C9=131.47               C8-C9-C5= 98.79                S11-C10-C4=112.70              H18-C10-C4=128.08              
H18-C10-S11=119.21             
 
 selected dihedral angles (degree)
 ---------------------------------
C3-C2-C1-H12=246.10           C3-C2-C1-H13=  6.13           C3-C2-C1-H14=126.43           S11-C2-C1-H12= 65.58          
S11-C2-C1-H13=185.61          S11-C2-C1-H14=305.91          C4-C3-C2-C1=179.52            C4-C3-C2-S11=  0.00           
H15-C3-C2-C1=359.47           H15-C3-C2-S11=179.96          C5-C4-C3-C2=180.11            C5-C4-C3-H15=  0.16           
C10-C4-C3-C2=  0.00           C10-C4-C3-H15=180.06          N6-C5-C4-C3=359.85            N6-C5-C4-C10=179.97           
C9-C5-C4-C3=179.67            C9-C5-C4-C10=359.78           N7-N6-C5-C4=179.92            N7-N6-C5-C9=  0.09            
C8-N7-N6-C5=  0.00            H16-N7-N6-C5=180.03           C9-C8-N7-N6=359.94            C9-C8-N7-H16=179.88           
H17-C8-N7-N6=180.01           H17-C8-N7-H16=359.95          C8-C9-C5-C4=180.06            C8-C9-C5-N6=359.88            
C5-C9-C8-N7=  0.10            C5-C9-C8-H17=180.02           S11-C10-C4-C3=359.97          S11-C10-C4-C5=179.87          
H18-C10-C4-C3=179.99          H18-C10-C4-C5=359.89          
           -------------------------------------------------
          |                Final Singlepoint                |
           -------------------------------------------------

          ...................................................
          :                      SETUP                      :
          :.................................................:
          :  # basis functions                  57          :
          :  # atomic orbitals                  56          :
          :  # shells                           30          :
          :  # electrons                        56          :
          :  max. iterations                   250          :
          :  Hamiltonian                  GFN2-xTB          :
          :  restarted?                      false          :
          :  GBSA solvation                  false          :
          :  PC potential                    false          :
          :  electronic temp.          300.0000000     K    :
          :  accuracy                    1.0000000          :
          :  -> integral cutoff          0.2500000E+02      :
          :  -> integral neglect         0.1000000E-07      :
          :  -> SCF convergence          0.1000000E-05 Eh   :
          :  -> wf. convergence          0.1000000E-03 e    :
          :  Broyden damping             0.4000000          :
          ...................................................

 iter      E             dE          RMSdq      gap      omega  full diag
   1    -30.2908649 -0.302909E+02  0.126E-04    0.34       0.0  T
   2    -30.2908649 -0.697753E-11  0.980E-05    0.34     240.5  T
   3    -30.2908649 -0.897238E-10  0.503E-05    0.34     468.2  T

   *** convergence criteria satisfied after 3 iterations ***

         #    Occupation            Energy/Eh            Energy/eV
      -------------------------------------------------------------
         1        2.0000           -0.5816415             -15.8273
       ...           ...                  ...                  ...
        22        2.0000           -0.2507672              -6.8237
        23        2.0000           -0.2379108              -6.4739
        24        2.0000           -0.2254063              -6.1336
        25        2.0000           -0.1927390              -5.2447
        26        2.0000           -0.1806870              -4.9167
        27        2.0000           -0.1566656              -4.2631
        28        1.9974           -0.1023969              -2.7864 (HOMO)
        29        0.0026           -0.0897431              -2.4420 (LUMO)
        30                         -0.0627875              -1.7085
        31                         -0.0369662              -1.0059
        32                          0.0229798               0.6253
        33                          0.0272665               0.7420
       ...                                ...                  ...
        56                          0.8682265              23.6256
      -------------------------------------------------------------
                  HL-Gap            0.0126539 Eh            0.3443 eV
             Fermi-level           -0.0960700 Eh           -2.6142 eV
 
 localization/xTB-IFF output generation
 averaging CT terms over            1  occ. levels
 averaging CT terms over            1  virt. levels
 dipole moment from electron density (au)
     X       Y       Z   
  -2.4796   1.3641   1.1083  total (Debye):    7.725
cpu  time for init local    0.00 s
wall time for init local    0.00 s
 doing rotations ...
 initialization of trafo matrix to unity
iteration     50  convergence  0.77726905D-03

 converged in     96 iterations, threshold :   0.99699795D-06
 doing transformations ...
 lmo centers(Z=2) and atoms on file <lmocent.coord>
 LMO Fii/eV  ncent    charge center   contributions...
    1 sigma -11.36   1.97  -5.42648  -0.40351  -0.38920    1C :  0.52    2C :  0.49
    2 sigma -11.14   1.93  -3.84129  -2.25644  -1.43879   11S :  0.59    2C :  0.41
    3 sigma -11.04   1.99  -7.29622  -0.88406   0.73388    1C :  0.51   12H :  0.50
    4 sigma -11.04   1.99  -7.43671  -0.02987  -1.29045    1C :  0.51   14H :  0.49
    5 sigma -11.03   1.98  -6.74963   1.22710   0.39132    1C :  0.51   13H :  0.50
    6 sigma -10.96   1.99   6.09421   3.64265   1.51049    7N :  0.53   16H :  0.47
    7 sigma -10.85   1.89  -1.87399  -3.44591  -2.13175   11S :  0.61   10C :  0.39
    8 sigma -10.33   1.86   6.24174   1.85430   0.54315    7N :  0.63    8C :  0.38
    9 sigma -10.25   2.00  -0.76848  -0.14508  -0.37697    3C :  0.52    4C :  0.48
   10 LP    -10.16   1.14  -4.04254  -3.05124  -4.66453   11S :  0.94
   11 LP    -10.16   1.14  -3.92942  -5.39126  -0.33081   11S :  0.94
   12 sigma  -9.91   2.02  -1.88942   1.61656   0.60188    3C :  0.50   15H :  0.49
   13 sigma  -9.85   2.01   0.65003  -3.97140  -2.48031   10C :  0.50   18H :  0.49
   14 pi     -9.69   1.88   4.78554   2.27530   1.26925    7N :  0.66    6N :  0.31
   15 pi     -9.66   1.87   4.77612   2.66557   0.54206    7N :  0.66    6N :  0.31
   16 pi     -9.58   2.09  -2.97300   0.03608  -0.82286    2C :  0.50    3C :  0.48
   17 pi     -9.56   2.10  -2.94728  -0.46469   0.10523    2C :  0.50    3C :  0.48
   18 sigma  -9.35   2.02   1.52254  -0.41747  -0.58020    4C :  0.55    5C :  0.44
   19 pi     -8.84   2.18  -0.01533  -1.70012  -1.82205   10C :  0.51    4C :  0.44
   20 pi     -8.84   2.18   0.00810  -2.19101  -0.91529   10C :  0.51    4C :  0.44
   21 sigma  -8.76   1.98   8.31846   0.68464  -0.13136   17H :  0.55    8C :  0.45
   22 delpi  -7.76   2.27   2.95633   1.36233  -0.15509    6N :  0.49    5C :  0.45
   23 delpi  -7.76   2.27   2.97285   0.94420   0.62443    6N :  0.49    5C :  0.45
   24 sigma  -7.53   2.00   3.92070  -0.52044  -0.68555    5C :  0.56    9C :  0.43
   25 delpi  -6.57   2.23   5.95218   0.21897  -0.88362    8C :  0.56    9C :  0.36
   26 delpi  -6.57   2.24   5.96993  -0.24202  -0.02717    8C :  0.56    9C :  0.36
   27 LP     -6.40   1.02   1.90592   3.55181   1.54895    6N :  0.99
   28 LP     -3.87   1.05   5.51559  -2.84704  -1.96936    9C :  0.98
 starting deloc pi regularization ...
 thr    2.20000000000000      # pi deloc LMO           5
 files:
 coordprot.0/xtbscreen.xyz/xtblmoinfo/lmocent.coord
 with protonation site input, xtbdock and
 LMO center info written
 

 SCC (total)                   0 d,  0 h,  0 min,  0.036 sec
 SCC setup                      ...        0 min,  0.000 sec (  0.451%)
 Dispersion                     ...        0 min,  0.000 sec (  0.315%)
 classical contributions        ...        0 min,  0.000 sec (  0.097%)
 integral evaluation            ...        0 min,  0.004 sec ( 12.099%)
 iterations                     ...        0 min,  0.004 sec ( 10.981%)
 molecular gradient             ...        0 min,  0.010 sec ( 27.101%)
 printout                       ...        0 min,  0.018 sec ( 48.820%)

         :::::::::::::::::::::::::::::::::::::::::::::::::::::
         ::                     SUMMARY                     ::
         :::::::::::::::::::::::::::::::::::::::::::::::::::::
         :: total energy             -29.878964557320 Eh    ::
         :: gradient norm              0.000852184365 Eh/a0 ::
         :: HOMO-LUMO gap              0.344329894860 eV    ::
         ::.................................................::
         :: SCC energy               -30.290864913596 Eh    ::
         :: -> isotropic ES            0.123756879928 Eh    ::
         :: -> anisotropic ES          0.006142906114 Eh    ::
         :: -> anisotropic XC          0.018285589357 Eh    ::
         :: -> dispersion             -0.018419553495 Eh    ::
         :: repulsion energy           0.411944950967 Eh    ::
         :: add. restraining           0.000000000000 Eh    ::
         :: total charge              -1.000000000000 e     ::
         :::::::::::::::::::::::::::::::::::::::::::::::::::::

           -------------------------------------------------
          |                Property Printout                |
           -------------------------------------------------

    * Orbital Energies and Occupations

         #    Occupation            Energy/Eh            Energy/eV
      -------------------------------------------------------------
         1        2.0000           -0.5816415             -15.8273
       ...           ...                  ...                  ...
        16        2.0000           -0.3260660              -8.8727
        17        2.0000           -0.3205609              -8.7229
        18        2.0000           -0.3163975              -8.6096
        19        2.0000           -0.3090761              -8.4104
        20        2.0000           -0.2988415              -8.1319
        21        2.0000           -0.2760885              -7.5128
        22        2.0000           -0.2507672              -6.8237
        23        2.0000           -0.2379108              -6.4739
        24        2.0000           -0.2254063              -6.1336
        25        2.0000           -0.1927390              -5.2447
        26        2.0000           -0.1806870              -4.9167
        27        2.0000           -0.1566656              -4.2631
        28        1.9974           -0.1023969              -2.7864 (HOMO)
        29        0.0026           -0.0897431              -2.4420 (LUMO)
        30                         -0.0627875              -1.7085
        31                         -0.0369662              -1.0059
        32                          0.0229798               0.6253
        33                          0.0272665               0.7420
        34                          0.1008875               2.7453
        35                          0.1328307               3.6145
        36                          0.1612095               4.3867
        37                          0.1763384               4.7984
        38                          0.1978733               5.3844
        39                          0.2395423               6.5183
       ...                                ...                  ...
        56                          0.8682265              23.6256
      -------------------------------------------------------------
                  HL-Gap            0.0126539 Eh            0.3443 eV
             Fermi-level           -0.0960700 Eh           -2.6142 eV

     #   Z          covCN         q      C6AA      α(0)
     1   6 C        3.773    -0.091    22.264     6.723
     2   6 C        2.971     0.017    27.615     8.620
     3   6 C        3.119    -0.056    29.206     8.851
     4   6 C        3.129    -0.004    27.914     8.650
     5   6 C        3.253     0.042    26.020     8.252
     6   7 N        1.954    -0.333    29.461     8.049
     7   7 N        2.949    -0.057    22.340     7.020
     8   6 C        3.071    -0.020    28.425     8.742
     9   6 C        2.001    -0.366    42.737    10.558
    10   6 C        2.943    -0.031    28.771     8.797
    11  16 S        2.294    -0.210   149.997    20.613
    12   1 H        0.924     0.026     2.637     2.540
    13   1 H        0.925     0.026     2.650     2.546
    14   1 H        0.924     0.028     2.621     2.532
    15   1 H        0.926     0.020     2.734     2.586
    16   1 H        0.860     0.072     2.076     2.257
    17   1 H        0.925    -0.088     5.164     3.554
    18   1 H        0.927     0.024     2.668     2.554

 Mol. C6AA /au·bohr⁶  :       5954.604387
 Mol. C8AA /au·bohr⁸  :     164322.305127
 Mol. α(0) /au        :        123.442492


Wiberg/Mayer (AO) data.
largest (>0.10) Wiberg bond orders for each atom

 ---------------------------------------------------------------------------
     #   Z sym  total        # sym  WBO       # sym  WBO       # sym  WBO
 ---------------------------------------------------------------------------
     1   6 C    3.998 --     2 C    1.027    13 H    0.984    14 H    0.979
                            12 H    0.976
     2   6 C    3.938 --     3 C    1.661    11 S    1.108     1 C    1.027
                            10 C    0.106
     3   6 C    3.985 --     2 C    1.661     4 C    1.179    15 H    0.962
     4   6 C    3.975 --    10 C    1.543     3 C    1.179     5 C    1.109
     5   6 C    3.933 --     6 N    1.364     9 C    1.231     4 C    1.109
                             7 N    0.106
     6   7 N    2.911 --     5 C    1.364     7 N    1.199     8 C    0.202
     7   7 N    3.534 --     6 N    1.199     8 C    1.151    16 H    0.955
                             5 C    0.106
     8   6 C    3.885 --     9 C    1.525     7 N    1.151    17 H    0.961
                             6 N    0.202
     9   6 C    2.988 --     8 C    1.525     5 C    1.231
    10   6 C    3.906 --     4 C    1.543    11 S    1.113    18 H    0.970
                             2 C    0.106
    11  16 S    2.495 --    10 C    1.113     2 C    1.108
    12   1 H    0.999 --     1 C    0.976
    13   1 H    0.999 --     1 C    0.984
    14   1 H    0.999 --     1 C    0.979
    15   1 H    1.000 --     3 C    0.962
    16   1 H    0.994 --     7 N    0.955
    17   1 H    0.992 --     8 C    0.961
    18   1 H    0.999 --    10 C    0.970
 ---------------------------------------------------------------------------

Topologies differ in total number of bonds
Writing topology from bond orders to xtbtopo.mol

molecular dipole:
                 x           y           z       tot (Debye)
 q only:       -2.845       0.487       0.640
   full:       -2.475       1.368       1.111       7.723
molecular quadrupole (traceless):
                xx          xy          yy          xz          yz          zz
 q only:      -19.125      -3.920       7.643      -0.015      -3.320      11.482
  q+dip:      -15.089       1.023       5.873       2.304      -3.884       9.216
   full:      -15.475       0.696       5.130       2.181      -5.291      10.345

           -------------------------------------------------
          |                Geometry Summary                 |
           -------------------------------------------------

      molecular mass/u    :      163.2196663
   center of mass at/Å    :        0.1103871      -0.3198367      -0.3398458
  moments of inertia/u·Å² :        0.1793187E+03   0.9306202E+03   0.1106798E+04
rotational constants/cm⁻¹ :        0.9400934E-01   0.1811441E-01   0.1523100E-01

 * 17 selected distances

     #   Z          #   Z                                           value/Å
     2   6 C        3   6 C                                       1.3504856
     3   6 C        4   6 C                                       1.4325146
     4   6 C        5   6 C                                       1.4361449
     5   6 C        6   7 N                                       1.3531376
     6   7 N        7   7 N                                       1.3365103
     7   7 N        8   6 C                                       1.3833240
     8   6 C        9   6 C                                       1.3841300
     4   6 C       10   6 C                                       1.3645347
     2   6 C       11  16 S                                       1.7475482 (max)
    10   6 C       11  16 S                                       1.7361136
     1   6 C       12   1 H                                       1.0925372
     1   6 C       13   1 H                                       1.0892688
     1   6 C       14   1 H                                       1.0914458
     3   6 C       15   1 H                                       1.0766212
     7   7 N       16   1 H                                       1.0136713 (min)
     8   6 C       17   1 H                                       1.0860840
    10   6 C       18   1 H                                       1.0703787

 * 6 distinct bonds (by element types)

   Z      Z             #   av. dist./Å        max./Å        min./Å
   1 H    6 C           6     1.0843893     1.0925372     1.0703787
   6 C    6 C           5     1.3935620     1.4361449     1.3504856
   1 H    7 N           1     1.0136713     1.0136713     1.0136713
   6 C    7 N           2     1.3682308     1.3833240     1.3531376
   7 N    7 N           1     1.3365103     1.3365103     1.3365103
   6 C   16 S           2     1.7418309     1.7475482     1.7361136


optimized geometry written to: xtbopt.xyz


           -------------------------------------------------
          | TOTAL ENERGY              -29.878964557320 Eh   |
          | GRADIENT NORM               0.000852184365 Eh/α |
          | HOMO-LUMO GAP               0.344329894860 eV   |
           -------------------------------------------------

------------------------------------------------------------------------
 * finished run on 2022/11/02 at 18:13:38.122     
------------------------------------------------------------------------
 total:
 * wall-time:     0 d,  0 h,  0 min,  0.851 sec
 *  cpu-time:     0 d,  0 h,  0 min,  0.744 sec
 * ratio c/w:     0.875 speedup
 SCF:
 * wall-time:     0 d,  0 h,  0 min,  0.055 sec
 *  cpu-time:     0 d,  0 h,  0 min,  0.049 sec
 * ratio c/w:     0.896 speedup
 ANC optimizer:
 * wall-time:     0 d,  0 h,  0 min,  0.671 sec
 *  cpu-time:     0 d,  0 h,  0 min,  0.665 sec
 * ratio c/w:     0.990 speedup

