      -----------------------------------------------------------      
     |                   =====================                   |     
     |                           x T B                           |     
     |                   =====================                   |     
     |                         S. Grimme                         |     
     |          Mulliken Center for Theoretical Chemistry        |     
     |                    University of Bonn                     |     
      -----------------------------------------------------------      

   * xtb version 6.4.1 (afa7bdf) compiled by 'ehlert@majestix' on 2021-06-10

   xtb is free software: you can redistribute it and/or modify it under
   the terms of the GNU Lesser General Public License as published by
   the Free Software Foundation, either version 3 of the License, or
   (at your option) any later version.
   
   xtb is distributed in the hope that it will be useful,
   but WITHOUT ANY WARRANTY; without even the implied warranty of
   MERCHANTABILITY or FITNESS FOR A PARTICULAR PURPOSE.  See the
   GNU Lesser General Public License for more details.
   
   Cite this work as:
   * C. Bannwarth, E. Caldeweyher, S. Ehlert, A. Hansen, P. Pracht,
     J. Seibert, S. Spicher, S. Grimme, WIREs Comput. Mol. Sci., 2020, 11,
     e01493. DOI: 10.1002/wcms.1493
   
   for GFN2-xTB:
   * C. Bannwarth, S. Ehlert and S. Grimme., J. Chem. Theory Comput., 2019,
     15, 1652-1671. DOI: 10.1021/acs.jctc.8b01176
   for GFN1-xTB:
   * S. Grimme, C. Bannwarth, P. Shushkov, J. Chem. Theory Comput., 2017,
     13, 1989-2009. DOI: 10.1021/acs.jctc.7b00118
   for GFN0-xTB:
   * P. Pracht, E. Caldeweyher, S. Ehlert, S. Grimme, ChemRxiv, 2019, preprint.
     DOI: 10.26434/chemrxiv.8326202.v1
   for GFN-FF:
   * S. Spicher and S. Grimme, Angew. Chem. Int. Ed., 2020, 59, 15665-15673.
     DOI: 10.1002/anie.202004239
   
   for DFT-D4:
   * E. Caldeweyher, C. Bannwarth and S. Grimme, J. Chem. Phys., 2017,
     147, 034112. DOI: 10.1063/1.4993215
   * E. Caldeweyher, S. Ehlert, A. Hansen, H. Neugebauer, S. Spicher,
     C. Bannwarth and S. Grimme, J. Chem. Phys., 2019, 150, 154122.
     DOI: 10.1063/1.5090222
   * E. Caldeweyher, J.-M. Mewes, S. Ehlert and S. Grimme, Phys. Chem. Chem. Phys.
     2020, 22, 8499-8512. DOI: 10.1039/D0CP00502A
   
   for sTDA-xTB:
   * S. Grimme and C. Bannwarth, J. Chem. Phys., 2016, 145, 054103.
     DOI: 10.1063/1.4959605
   
   in the mass-spec context:
   * V. Asgeirsson, C. Bauer and S. Grimme, Chem. Sci., 2017, 8, 4879.
     DOI: 10.1039/c7sc00601b
   * J. Koopman and S. Grimme, ACS Omega 2019, 4, 12, 15120-15133.
     DOI: 10.1021/acsomega.9b02011
   
   for metadynamics refer to:
   * S. Grimme, J. Chem. Theory Comput., 2019, 155, 2847-2862
     DOI: 10.1021/acs.jctc.9b00143
   
   for SPH calculations refer to:
   * S. Spicher and S. Grimme, J. Chem. Theory Comput., 2021, 17, 1701-1714
     DOI: 10.1021/acs.jctc.0c01306
   
   with help from (in alphabetical order)
   P. Atkinson, C. Bannwarth, F. Bohle, G. Brandenburg, E. Caldeweyher
   M. Checinski, S. Dohm, S. Ehlert, S. Ehrlich, I. Gerasimov, J. Koopman
   C. Lavigne, S. Lehtola, F. März, M. Müller, F. Musil, H. Neugebauer
   J. Pisarek, C. Plett, P. Pracht, J. Seibert, P. Shushkov, S. Spicher
   M. Stahn, M. Steiner, T. Strunk, J. Stückrath, T. Rose, and J. Unsleber
   
 * started run on 2022/11/02 at 18:13:35.651     

           -------------------------------------------------
          |                Calculation Setup                |
           -------------------------------------------------

          program call               : /lustre/hpc/kemi/borup/pKalculator/dep/xtb-6.4.1/bin/xtb --gfn 2 /lustre/hpc/kemi/borup/pKalculator/calc/test#-1=4/conf06/test#-1=4_conf06_gfn2.xyz --opt --lmo --chrg -1 --uhf 0
          hostname                   : fend01.cluster
          coordinate file            : /lustre/hpc/kemi/borup/pKalculator/calc/test#-1=4/conf06/test#-1=4_conf06_gfn2.xyz
          omp threads                :                     1
          number of atoms            :                    18
          number of electrons        :                    56
          charge                     :                    -1
          spin                       :                   0.0
          first test random number   :      0.81844428021822

   ID    Z sym.   atoms
    1    6 C      1-5, 8-10
    2    7 N      6, 7
    3   16 S      11
    4    1 H      12-18

           -------------------------------------------------
          |                 G F N 2 - x T B                 |
           -------------------------------------------------

        Reference                      10.1021/acs.jctc.8b01176
      * Hamiltonian:
        H0-scaling (s, p, d)           1.850000    2.230000    2.230000
        zeta-weighting                 0.500000
      * Dispersion:
        s8                             2.700000
        a1                             0.520000
        a2                             5.000000
        s9                             5.000000
      * Repulsion:
        kExp                           1.500000    1.000000
        rExp                           1.000000
      * Coulomb:
        alpha                          2.000000
        third order                    shell-resolved
        anisotropic                    true
        a3                             3.000000
        a5                             4.000000
        cn-shift                       1.200000
        cn-exp                         4.000000
        max-rad                        5.000000


          ...................................................
          :                      SETUP                      :
          :.................................................:
          :  # basis functions                  57          :
          :  # atomic orbitals                  56          :
          :  # shells                           30          :
          :  # electrons                        56          :
          :  max. iterations                   250          :
          :  Hamiltonian                  GFN2-xTB          :
          :  restarted?                      false          :
          :  GBSA solvation                  false          :
          :  PC potential                    false          :
          :  electronic temp.          300.0000000     K    :
          :  accuracy                    1.0000000          :
          :  -> integral cutoff          0.2500000E+02      :
          :  -> integral neglect         0.1000000E-07      :
          :  -> SCF convergence          0.1000000E-05 Eh   :
          :  -> wf. convergence          0.1000000E-03 e    :
          :  Broyden damping             0.4000000          :
          ...................................................

 iter      E             dE          RMSdq      gap      omega  full diag
   1    -30.1319335 -0.301319E+02  0.440E+00    2.61       0.0  T
   2    -30.1572539 -0.253204E-01  0.384E+00    0.11       1.0  T
   3    -30.2689784 -0.111725E+00  0.194E+00    1.18       1.0  T
   4    -30.2419617  0.270167E-01  0.154E+00    0.08       1.0  T
   5    -30.2856466 -0.436849E-01  0.670E-01    1.12       1.0  T
   6    -30.2918219 -0.617529E-02  0.373E-01    0.75       1.0  T
   7    -30.2926003 -0.778435E-03  0.289E-01    0.62       1.0  T
   8    -30.2931840 -0.583717E-03  0.209E-01    0.50       1.0  T
   9    -30.2936843 -0.500298E-03  0.644E-02    0.29       1.0  T
  10    -30.2937121 -0.278050E-04  0.206E-02    0.29       1.1  T
  11    -30.2937118  0.326540E-06  0.150E-02    0.29       1.6  T
  12    -30.2937153 -0.347643E-05  0.434E-03    0.27       5.4  T
  13    -30.2937157 -0.407892E-06  0.118E-03    0.28      20.0  T
  14    -30.2937157  0.663401E-08  0.840E-04    0.28      28.1  T
  15    -30.2937157 -0.457125E-08  0.503E-04    0.28      46.8  T

   *** convergence criteria satisfied after 15 iterations ***

         #    Occupation            Energy/Eh            Energy/eV
      -------------------------------------------------------------
         1        2.0000           -0.5527934             -15.0423
       ...           ...                  ...                  ...
        22        2.0000           -0.2565325              -6.9806
        23        2.0000           -0.2508102              -6.8249
        24        2.0000           -0.2466143              -6.7107
        25        2.0000           -0.2325156              -6.3271
        26        2.0000           -0.1835527              -4.9947
        27        2.0000           -0.1610682              -4.3829
        28        1.9909           -0.0938894              -2.5549 (HOMO)
        29        0.0091           -0.0836476              -2.2762 (LUMO)
        30                         -0.0518282              -1.4103
        31                          0.0032769               0.0892
        32                          0.0049633               0.1351
        33                          0.0670964               1.8258
       ...                                ...                  ...
        56                          0.9095082              24.7490
      -------------------------------------------------------------
                  HL-Gap            0.0102418 Eh            0.2787 eV
             Fermi-level           -0.0887685 Eh           -2.4155 eV
 
 localization/xTB-IFF output generation
 averaging CT terms over            1  occ. levels
 averaging CT terms over            1  virt. levels
 dipole moment from electron density (au)
     X       Y       Z   
   2.8963  -0.6972   1.0613  total (Debye):    8.038
cpu  time for init local    0.00 s
wall time for init local    0.01 s
 doing rotations ...
 initialization of trafo matrix to unity

 converged in     47 iterations, threshold :   0.99329611D-06
 doing transformations ...
 lmo centers(Z=2) and atoms on file <lmocent.coord>
 LMO Fii/eV  ncent    charge center   contributions...
    1 sigma -13.36   1.95   4.17135  -1.62900   2.66531    7N :  0.57    6N :  0.44
    2 sigma -12.87   1.92   5.99759  -1.07784   1.94064    7N :  0.58    8C :  0.43
    3 sigma -12.61   1.97   5.88868  -2.23910   3.64098    7N :  0.56   15H :  0.44
    4 sigma -11.30   2.01   7.95244  -0.19773   0.74048   16H :  0.51    8C :  0.49
    5 sigma -10.54   1.99   3.54498   0.28118  -0.16681    9C :  0.52    5C :  0.48
    6 sigma -10.31   2.01   4.87019   1.39714  -1.74313   17H :  0.51    9C :  0.49
    7 pi     -9.85   2.15   5.55445  -0.26854  -0.16887    9C :  0.49    8C :  0.48
    8 pi     -9.85   2.16   5.52770   0.57035   0.40283    9C :  0.49    8C :  0.48
    9 pi     -9.72   2.13   2.70937  -0.54163   1.82422    6N :  0.54    5C :  0.42
   10 pi     -9.71   2.13   2.73321  -1.30591   1.30351    6N :  0.54    5C :  0.42
   11 sigma  -9.66   2.01   1.17642   0.09809  -0.00634    5C :  0.54    4C :  0.45
   12 sigma  -9.58   1.97  -8.12205   0.57289  -0.25175   13H :  0.51    1C :  0.50
   13 sigma  -9.57   1.99  -7.53801  -1.59299  -0.16133   12H :  0.51    1C :  0.49
   14 pi     -9.53   1.53   5.21803  -1.43409   2.42946    7N :  0.80    8C :  0.10
   15 sigma  -9.51   1.98  -7.29548  -0.28775   1.64482   14H :  0.51    1C :  0.50
   16 sigma  -9.38   1.96  -5.98263   0.00069  -0.14692    1C :  0.55    2C :  0.46
   17 sigma  -9.38   1.95  -2.20368   2.04803  -3.01846   11S :  0.57   10C :  0.43
   18 sigma  -9.34   1.99   0.38011   2.42430  -3.46676   18H :  0.53   10C :  0.47
   19 sigma  -8.73   1.75  -4.32701   1.40824  -2.16112   11S :  0.69    2C :  0.30
   20 LP     -8.48   1.16  -3.82914   0.73052  -5.42840   11S :  0.93
   21 LP     -8.42   1.16  -3.89337   4.69599  -2.64696   11S :  0.93
   22 sigma  -8.42   2.01  -1.19231   0.00684   0.02735    4C :  0.55    3C :  0.44
   23 pi     -7.97   2.20  -0.36100   1.49392  -1.21774   10C :  0.48    4C :  0.47
   24 delpi  -7.96   2.20  -0.33790   0.65394  -1.79508   10C :  0.48    4C :  0.47
   25 LP     -7.78   1.02   1.77707  -2.43620   3.73993    6N :  0.99
   26 pi     -6.73   2.18  -3.52063   0.54803   0.05911    2C :  0.55    3C :  0.40
   27 pi     -6.71   2.20  -3.49224  -0.30490  -0.51329    2C :  0.54    3C :  0.40
   28 LP     -4.21   1.33  -3.48645  -0.92469   1.34615    3C :  0.86    2C :  0.10
 starting deloc pi regularization ...
 thr    2.20000000000000      # pi deloc LMO           5
 files:
 coordprot.0/xtbscreen.xyz/xtblmoinfo/lmocent.coord
 with protonation site input, xtbdock and
 LMO center info written
 

 SCC (total)                   0 d,  0 h,  0 min,  0.052 sec
 SCC setup                      ...        0 min,  0.000 sec (  0.747%)
 Dispersion                     ...        0 min,  0.000 sec (  0.478%)
 classical contributions        ...        0 min,  0.000 sec (  0.134%)
 integral evaluation            ...        0 min,  0.005 sec (  9.113%)
 iterations                     ...        0 min,  0.018 sec ( 34.383%)
 molecular gradient             ...        0 min,  0.010 sec ( 18.668%)
 printout                       ...        0 min,  0.019 sec ( 36.367%)

         :::::::::::::::::::::::::::::::::::::::::::::::::::::
         ::                     SUMMARY                     ::
         :::::::::::::::::::::::::::::::::::::::::::::::::::::
         :: total energy             -29.871635481414 Eh    ::
         :: gradient norm              0.105163639549 Eh/a0 ::
         :: HOMO-LUMO gap              0.278693488072 eV    ::
         ::.................................................::
         :: SCC energy               -30.293715669495 Eh    ::
         :: -> isotropic ES            0.114205437984 Eh    ::
         :: -> anisotropic ES          0.012340545108 Eh    ::
         :: -> anisotropic XC          0.017340495646 Eh    ::
         :: -> dispersion             -0.018147607570 Eh    ::
         :: repulsion energy           0.422132038722 Eh    ::
         :: add. restraining           0.000000000000 Eh    ::
         :: total charge              -1.000000000000 e     ::
         :::::::::::::::::::::::::::::::::::::::::::::::::::::

      ----------------------------------------------------------- 
     |                   =====================                   |
     |                        A N C O P T                        |
     |                   =====================                   |
     |               Approximate Normal Coordinate               |
     |                Rational Function Optimizer                |
      ----------------------------------------------------------- 

          ...................................................
          :                      SETUP                      :
          :.................................................:
          :   optimization level            normal          :
          :   max. optcycles                   200          :
          :   ANC micro-cycles                  20          :
          :   degrees of freedom                48          :
          :.................................................:
          :   RF solver                   davidson          :
          :   write xtbopt.log                true          :
          :   linear?                        false          :
          :   energy convergence         0.5000000E-05 Eh   :
          :   grad. convergence          0.1000000E-02 Eh/α :
          :   maximium RF displ.         1.0000000          :
          :   Hlow (freq-cutoff)         0.1000000E-01      :
          :   Hmax (freq-cutoff)         5.0000000          :
          :   S6 in model hess.         20.0000000          :
          ...................................................

generating ANC from model Hessian ...
Using Lindh-Hessian (1995)
 Shifting diagonal of input Hessian by   8.082853037201928E-003
 Lowest  eigenvalues of input Hessian
    0.000000    0.000000    0.000000    0.000000    0.000000    0.000000
    0.010000    0.011811    0.012657    0.015487    0.018479    0.027511
    0.029400    0.034900    0.044027    0.048581    0.059400    0.073643
 Highest eigenvalues
    1.720776    1.756284    1.904371    1.928085    1.985997    2.065289
 

........................................................................
.............................. CYCLE    1 ..............................
........................................................................
   1    -30.2937157 -0.302937E+02  0.121E-04    0.28       0.0  T
   2    -30.2937157 -0.333387E-10  0.899E-05    0.28     262.1  T
   3    -30.2937157 -0.459117E-10  0.568E-05    0.28     415.3  T
     SCC iter.                  ...        0 min,  0.004 sec
     gradient                   ...        0 min,  0.010 sec
 * total energy  :   -29.8716355 Eh     change       -0.5577188E-08 Eh
   gradient norm :     0.1051622 Eh/α   predicted     0.0000000E+00 (-100.00%)
   displ. norm   :     0.3194796 α      lambda       -0.2370914E-01
   maximum displ.:     0.1822735 α      in ANC's #9, #31, #13, ...

........................................................................
.............................. CYCLE    2 ..............................
........................................................................
   1    -30.3083643 -0.303084E+02  0.645E-01    0.77       0.0  T
   2    -30.3083205  0.437891E-04  0.403E-01    0.79       1.0  T
   3    -30.3071667  0.115380E-02  0.327E-01    0.75       1.0  T
   4    -30.3088111 -0.164444E-02  0.566E-02    0.78       1.0  T
   5    -30.3088161 -0.493236E-05  0.353E-02    0.77       1.0  T
   6    -30.3088268 -0.106962E-04  0.962E-03    0.77       2.4  T
   7    -30.3088273 -0.485270E-06  0.631E-03    0.77       3.7  T
   8    -30.3088277 -0.465661E-06  0.279E-03    0.77       8.4  T
   9    -30.3088278 -0.243287E-07  0.781E-04    0.77      30.2  T
  10    -30.3088278 -0.729748E-08  0.299E-04    0.77      78.8  T
     SCC iter.                  ...        0 min,  0.012 sec
     gradient                   ...        0 min,  0.010 sec
 * total energy  :   -29.8877717 Eh     change       -0.1613626E-01 Eh
   gradient norm :     0.0455426 Eh/α   predicted    -0.1306454E-01 ( -19.04%)
   displ. norm   :     0.2611543 α      lambda       -0.6436447E-02
   maximum displ.:     0.1723855 α      in ANC's #9, #7, #31, ...

........................................................................
.............................. CYCLE    3 ..............................
........................................................................
   1    -30.3174054 -0.303174E+02  0.366E-01    1.03       0.0  T
   2    -30.3173658  0.395862E-04  0.255E-01    1.10       1.0  T
   3    -30.3174625 -0.966920E-04  0.168E-01    1.06       1.0  T
   4    -30.3177705 -0.307952E-03  0.417E-02    1.07       1.0  T
   5    -30.3177806 -0.100853E-04  0.214E-02    1.07       1.1  T
   6    -30.3177828 -0.219793E-05  0.111E-02    1.08       2.1  T
   7    -30.3177846 -0.184158E-05  0.402E-03    1.07       5.9  T
   8    -30.3177848 -0.186722E-06  0.188E-03    1.07      12.6  T
   9    -30.3177848 -0.759579E-08  0.525E-04    1.07      44.9  T
  10    -30.3177848 -0.107970E-08  0.194E-04    1.07     121.5  T
     SCC iter.                  ...        0 min,  0.012 sec
     gradient                   ...        0 min,  0.009 sec
 * total energy  :   -29.8916388 Eh     change       -0.3867082E-02 Eh
   gradient norm :     0.0240891 Eh/α   predicted    -0.3437710E-02 ( -11.10%)
   displ. norm   :     0.1426807 α      lambda       -0.1112207E-02
   maximum displ.:     0.0783401 α      in ANC's #7, #9, #3, ...

........................................................................
.............................. CYCLE    4 ..............................
........................................................................
   1    -30.3214504 -0.303215E+02  0.148E-01    1.13       0.0  T
   2    -30.3214204  0.299841E-04  0.119E-01    1.17       1.0  T
   3    -30.3215863 -0.165900E-03  0.526E-02    1.14       1.0  T
   4    -30.3216107 -0.244194E-04  0.228E-02    1.15       1.0  T
   5    -30.3216140 -0.328550E-05  0.873E-03    1.15       2.7  T
   6    -30.3216142 -0.134122E-06  0.595E-03    1.15       4.0  T
   7    -30.3216146 -0.420209E-06  0.185E-03    1.15      12.7  T
   8    -30.3216146 -0.220691E-07  0.980E-04    1.15      24.0  T
   9    -30.3216146 -0.215183E-08  0.361E-04    1.15      65.3  T
     SCC iter.                  ...        0 min,  0.010 sec
     gradient                   ...        0 min,  0.009 sec
 * total energy  :   -29.8924976 Eh     change       -0.8588157E-03 Eh
   gradient norm :     0.0212267 Eh/α   predicted    -0.5674240E-03 ( -33.93%)
   displ. norm   :     0.2135242 α      lambda       -0.1422728E-02
   maximum displ.:     0.1269929 α      in ANC's #3, #7, #9, ...

........................................................................
.............................. CYCLE    5 ..............................
........................................................................
   1    -30.3266294 -0.303266E+02  0.294E-01    1.19       0.0  T
   2    -30.3264121  0.217332E-03  0.242E-01    1.29       1.0  T
   3    -30.3272449 -0.832868E-03  0.106E-01    1.22       1.0  T
   4    -30.3273505 -0.105509E-03  0.471E-02    1.23       1.0  T
   5    -30.3273629 -0.124771E-04  0.145E-02    1.23       1.6  T
   6    -30.3273636 -0.697912E-06  0.998E-03    1.23       2.4  T
   7    -30.3273646 -0.958190E-06  0.367E-03    1.23       6.4  T
   8    -30.3273647 -0.690448E-07  0.168E-03    1.23      14.0  T
   9    -30.3273647 -0.513725E-08  0.508E-04    1.23      46.4  T
  10    -30.3273647 -0.239655E-08  0.151E-04    1.23     156.4  T
     SCC iter.                  ...        0 min,  0.012 sec
     gradient                   ...        0 min,  0.009 sec
 * total energy  :   -29.8935331 Eh     change       -0.1035418E-02 Eh
   gradient norm :     0.0183119 Eh/α   predicted    -0.7437952E-03 ( -28.16%)
   displ. norm   :     0.1976422 α      lambda       -0.1207328E-02
   maximum displ.:     0.1289807 α      in ANC's #3, #7, #40, ...

........................................................................
.............................. CYCLE    6 ..............................
........................................................................
   1    -30.3322214 -0.303322E+02  0.402E-01    1.26       0.0  T
   2    -30.3315767  0.644738E-03  0.345E-01    1.39       1.0  T
   3    -30.3334452 -0.186850E-02  0.146E-01    1.30       1.0  T
   4    -30.3336486 -0.203478E-03  0.624E-02    1.31       1.0  T
   5    -30.3336693 -0.206366E-04  0.149E-02    1.31       1.6  T
   6    -30.3336696 -0.364744E-06  0.106E-02    1.31       2.2  T
   7    -30.3336705 -0.897607E-06  0.476E-03    1.31       5.0  T
   8    -30.3336707 -0.144811E-06  0.195E-03    1.31      12.1  T
   9    -30.3336707 -0.999083E-08  0.470E-04    1.31      50.1  T
  10    -30.3336707 -0.169188E-08  0.189E-04    1.31     124.8  T
     SCC iter.                  ...        0 min,  0.011 sec
     gradient                   ...        0 min,  0.009 sec
 * total energy  :   -29.8944843 Eh     change       -0.9512463E-03 Eh
   gradient norm :     0.0165935 Eh/α   predicted    -0.6272456E-03 ( -34.06%)
   displ. norm   :     0.2722539 α      lambda       -0.1742668E-02
   maximum displ.:     0.1605989 α      in ANC's #3, #40, #34, ...

........................................................................
.............................. CYCLE    7 ..............................
........................................................................
   1    -30.3387238 -0.303387E+02  0.741E-01    1.41       0.0  T
   2    -30.3355879  0.313588E-02  0.671E-01    1.59       1.0  T
   3    -30.3432082 -0.762023E-02  0.267E-01    1.48       1.0  T
   4    -30.3439017 -0.693577E-03  0.106E-01    1.48       1.0  T
   5    -30.3439523 -0.505765E-04  0.221E-02    1.48       1.1  T
   6    -30.3439526 -0.247367E-06  0.130E-02    1.48       1.8  T
   7    -30.3439533 -0.690443E-06  0.844E-03    1.48       2.8  T
   8    -30.3439539 -0.663008E-06  0.302E-03    1.48       7.8  T
   9    -30.3439539 -0.220121E-07  0.659E-04    1.48      35.8  T
  10    -30.3439539 -0.302803E-08  0.286E-04    1.48      82.5  T
     SCC iter.                  ...        0 min,  0.011 sec
     gradient                   ...        0 min,  0.009 sec
 * total energy  :   -29.8959646 Eh     change       -0.1480314E-02 Eh
   gradient norm :     0.0167450 Eh/α   predicted    -0.9359177E-03 ( -36.78%)
   displ. norm   :     0.5421405 α      lambda       -0.3760504E-02
   maximum displ.:     0.2271174 α      in ANC's #3, #34, #40, ...

........................................................................
.............................. CYCLE    8 ..............................
........................................................................
   1    -30.3426807 -0.303427E+02  0.151E+00    1.83       0.0  T
   2    -30.3274368  0.152439E-01  0.144E+00    1.79       1.0  T
   3    -30.3603060 -0.328692E-01  0.590E-01    1.82       1.0  T
   4    -30.3630694 -0.276340E-02  0.170E-01    1.79       1.0  T
   5    -30.3631477 -0.783057E-04  0.444E-02    1.77       1.0  T
   6    -30.3631506 -0.291663E-05  0.262E-02    1.78       1.0  T
   7    -30.3631538 -0.322745E-05  0.111E-02    1.78       2.1  T
   8    -30.3631547 -0.878077E-06  0.595E-03    1.78       4.0  T
   9    -30.3631549 -0.193336E-06  0.246E-03    1.78       9.6  T
  10    -30.3631549 -0.121130E-07  0.558E-04    1.78      42.3  T
  11    -30.3631549 -0.169479E-08  0.285E-04    1.78      82.6  T
     SCC iter.                  ...        0 min,  0.012 sec
     gradient                   ...        0 min,  0.009 sec
 * total energy  :   -29.8997072 Eh     change       -0.3742579E-02 Eh
   gradient norm :     0.0233510 Eh/α   predicted    -0.2432872E-02 ( -34.99%)
   displ. norm   :     0.8980367 α      lambda       -0.7928459E-02
   maximum displ.:     0.3905379 α      in ANC's #34, #40, #13, ...

........................................................................
.............................. CYCLE    9 ..............................
........................................................................
   1    -30.3343164 -0.303343E+02  0.177E+00    2.02       0.0  T
   2    -30.3047912  0.295252E-01  0.183E+00    1.68       1.0  T
   3    -30.3516508 -0.468596E-01  0.802E-01    1.83       1.0  T
   4    -30.3549357 -0.328489E-02  0.996E-02    1.74       1.0  T
   5    -30.3549687 -0.329556E-04  0.556E-02    1.73       1.0  T
   6    -30.3549879 -0.192253E-04  0.337E-02    1.74       1.0  T
   7    -30.3549988 -0.109246E-04  0.635E-03    1.74       3.7  T
   8    -30.3549991 -0.292980E-06  0.325E-03    1.74       7.3  T
   9    -30.3549992 -0.477228E-07  0.162E-03    1.74      14.6  T
  10    -30.3549992 -0.972785E-08  0.474E-04    1.74      49.7  T
  11    -30.3549992 -0.903420E-09  0.231E-04    1.74     102.2  T
     SCC iter.                  ...        0 min,  0.012 sec
     gradient                   ...        0 min,  0.009 sec
 * total energy  :   -29.9002532 Eh     change       -0.5459901E-03 Eh
   gradient norm :     0.1339534 Eh/α   predicted    -0.7161307E-02 (1211.62%)
   displ. norm   :     0.3234772 α      lambda       -0.1003819E-01
   maximum displ.:     0.1403011 α      in ANC's #34, #7, #40, ...

........................................................................
.............................. CYCLE   10 ..............................
........................................................................
   1    -30.3815204 -0.303815E+02  0.624E-01    1.73       0.0  T
   2    -30.3802838  0.123658E-02  0.508E-01    1.79       1.0  T
   3    -30.3822601 -0.197630E-02  0.308E-01    1.75       1.0  T
   4    -30.3830416 -0.781486E-03  0.437E-02    1.79       1.0  T
   5    -30.3830625 -0.209002E-04  0.173E-02    1.78       1.4  T
   6    -30.3830649 -0.237008E-05  0.687E-03    1.78       3.4  T
   7    -30.3830649 -0.396342E-07  0.348E-03    1.78       6.8  T
   8    -30.3830650 -0.133535E-06  0.149E-03    1.78      15.8  T
   9    -30.3830650  0.507335E-09  0.781E-04    1.78      30.2  T
  10    -30.3830651 -0.591825E-08  0.169E-04    1.78     139.4  T
     SCC iter.                  ...        0 min,  0.011 sec
     gradient                   ...        0 min,  0.009 sec
 * total energy  :   -29.9042175 Eh     change       -0.3964339E-02 Eh
   gradient norm :     0.0318741 Eh/α   predicted    -0.5544290E-02 (  39.85%)
   displ. norm   :     0.1285577 α      lambda       -0.1534134E-02
   maximum displ.:     0.0815099 α      in ANC's #3, #13, #2, ...

........................................................................
.............................. CYCLE   11 ..............................
........................................................................
   1    -30.3836050 -0.303836E+02  0.154E-01    1.80       0.0  T
   2    -30.3835574  0.476438E-04  0.116E-01    1.79       1.0  T
   3    -30.3836188 -0.614479E-04  0.794E-02    1.80       1.0  T
   4    -30.3836717 -0.528981E-04  0.202E-02    1.79       1.2  T
   5    -30.3836790 -0.727433E-05  0.511E-03    1.79       4.6  T
   6    -30.3836792 -0.199322E-06  0.255E-03    1.79       9.2  T
   7    -30.3836792 -0.351604E-07  0.104E-03    1.79      22.7  T
   8    -30.3836792 -0.759610E-08  0.401E-04    1.79      58.8  T
   9    -30.3836792 -0.471427E-09  0.218E-04    1.79     107.9  T
     SCC iter.                  ...        0 min,  0.010 sec
     gradient                   ...        0 min,  0.010 sec
 * total energy  :   -29.9055420 Eh     change       -0.1324488E-02 Eh
   gradient norm :     0.0320202 Eh/α   predicted    -0.7797429E-03 ( -41.13%)
   displ. norm   :     0.5452339 α      lambda       -0.6249222E-02
   maximum displ.:     0.2826935 α      in ANC's #13, #11, #2, ...

........................................................................
.............................. CYCLE   12 ..............................
........................................................................
   1    -30.3669474 -0.303669E+02  0.756E-01    1.85       0.0  T
   2    -30.3645619  0.238545E-02  0.653E-01    1.81       1.0  T
   3    -30.3683933 -0.383139E-02  0.363E-01    1.85       1.0  T
   4    -30.3692742 -0.880866E-03  0.797E-02    1.81       1.0  T
   5    -30.3693766 -0.102422E-03  0.232E-02    1.82       1.0  T
   6    -30.3693805 -0.393504E-05  0.984E-03    1.82       2.4  T
   7    -30.3693807 -0.141410E-06  0.430E-03    1.82       5.5  T
   8    -30.3693809 -0.211427E-06  0.134E-03    1.82      17.5  T
   9    -30.3693809 -0.185717E-08  0.717E-04    1.82      32.9  T
  10    -30.3693809 -0.336216E-08  0.212E-04    1.82     111.0  T
     SCC iter.                  ...        0 min,  0.011 sec
     gradient                   ...        0 min,  0.009 sec
 * total energy  :   -29.9064492 Eh     change       -0.9071930E-03 Eh
   gradient norm :     0.0557621 Eh/α   predicted    -0.4053495E-02 ( 346.82%)
   displ. norm   :     0.6687323 α      lambda       -0.9222888E-02
   maximum displ.:     0.4298398 α      in ANC's #3, #7, #9, ...

........................................................................
.............................. CYCLE   13 ..............................
........................................................................
   1    -30.3835672 -0.303836E+02  0.513E-01    1.86       0.0  T
   2    -30.3832161  0.351172E-03  0.329E-01    1.84       1.0  T
   3    -30.3828530  0.363088E-03  0.323E-01    1.85       1.0  T
   4    -30.3841271 -0.127410E-02  0.516E-02    1.83       1.0  T
   5    -30.3841547 -0.275777E-04  0.210E-02    1.84       1.1  T
   6    -30.3841587 -0.402538E-05  0.748E-03    1.84       3.2  T
   7    -30.3841589 -0.206062E-06  0.314E-03    1.84       7.5  T
   8    -30.3841590 -0.709184E-07  0.131E-03    1.84      17.9  T
   9    -30.3841590 -0.126175E-08  0.517E-04    1.84      45.6  T
  10    -30.3841590 -0.129686E-08  0.199E-04    1.84     118.3  T
     SCC iter.                  ...        0 min,  0.011 sec
     gradient                   ...        0 min,  0.009 sec
 * total energy  :   -29.9089509 Eh     change       -0.2501647E-02 Eh
   gradient norm :     0.1038121 Eh/α   predicted    -0.6673683E-02 ( 166.77%)
   displ. norm   :     0.3347336 α      lambda       -0.7086553E-02
   maximum displ.:     0.1941812 α      in ANC's #13, #40, #34, ...

........................................................................
.............................. CYCLE   14 ..............................
........................................................................
   1    -30.4120952 -0.304121E+02  0.577E-01    1.81       0.0  T
   2    -30.4118143  0.280836E-03  0.422E-01    1.80       1.0  T
   3    -30.4126613 -0.846947E-03  0.275E-01    1.79       1.0  T
   4    -30.4131874 -0.526136E-03  0.819E-02    1.82       1.0  T
   5    -30.4132744 -0.870360E-04  0.210E-02    1.80       1.1  T
   6    -30.4132799 -0.548696E-05  0.858E-03    1.80       2.7  T
   7    -30.4132802 -0.296322E-06  0.437E-03    1.80       5.4  T
   8    -30.4132803 -0.107786E-06  0.153E-03    1.80      15.4  T
   9    -30.4132803 -0.703583E-08  0.767E-04    1.80      30.7  T
  10    -30.4132803 -0.303196E-08  0.324E-04    1.80      72.8  T
     SCC iter.                  ...        0 min,  0.011 sec
     gradient                   ...        0 min,  0.009 sec
 * total energy  :   -29.9096956 Eh     change       -0.7447207E-03 Eh
   gradient norm :     0.0430919 Eh/α   predicted    -0.3940292E-02 ( 429.10%)
   displ. norm   :     0.3549203 α      lambda       -0.5052012E-02
   maximum displ.:     0.2013800 α      in ANC's #3, #13, #11, ...

........................................................................
.............................. CYCLE   15 ..............................
........................................................................
   1    -30.4005449 -0.304005E+02  0.363E-01    1.82       0.0  T
   2    -30.4003457  0.199148E-03  0.272E-01    1.81       1.0  T
   3    -30.4005519 -0.206172E-03  0.184E-01    1.83       1.0  T
   4    -30.4008727 -0.320771E-03  0.344E-02    1.81       1.0  T
   5    -30.4008886 -0.159338E-04  0.113E-02    1.82       2.1  T
   6    -30.4008895 -0.850764E-06  0.521E-03    1.82       4.5  T
   7    -30.4008896 -0.114972E-06  0.186E-03    1.82      12.6  T
   8    -30.4008896 -0.463245E-07  0.544E-04    1.82      43.3  T
   9    -30.4008896 -0.664389E-09  0.271E-04    1.82      86.9  T
     SCC iter.                  ...        0 min,  0.010 sec
     gradient                   ...        0 min,  0.009 sec
 * total energy  :   -29.9127103 Eh     change       -0.3014680E-02 Eh
   gradient norm :     0.0176545 Eh/α   predicted    -0.2844220E-02 (  -5.65%)
   displ. norm   :     0.3753473 α      lambda       -0.2329975E-02
   maximum displ.:     0.2119202 α      in ANC's #3, #11, #13, ...

........................................................................
.............................. CYCLE   16 ..............................
........................................................................
   1    -30.3923895 -0.303924E+02  0.385E-01    1.83       0.0  T
   2    -30.3919831  0.406428E-03  0.294E-01    1.79       1.0  T
   3    -30.3924627 -0.479614E-03  0.203E-01    1.81       1.0  T
   4    -30.3928576 -0.394913E-03  0.213E-02    1.80       1.1  T
   5    -30.3928611 -0.352302E-05  0.114E-02    1.80       2.1  T
   6    -30.3928622 -0.105654E-05  0.417E-03    1.80       5.7  T
   7    -30.3928623 -0.128235E-06  0.213E-03    1.80      11.1  T
   8    -30.3928623 -0.226139E-07  0.110E-03    1.80      21.3  T
   9    -30.3928623  0.418545E-10  0.392E-04    1.80      60.1  T
  10    -30.3928623 -0.123350E-08  0.134E-04    1.80     176.3  T
     SCC iter.                  ...        0 min,  0.011 sec
     gradient                   ...        0 min,  0.010 sec
 * total energy  :   -29.9142997 Eh     change       -0.1589411E-02 Eh
   gradient norm :     0.0402672 Eh/α   predicted    -0.1329129E-02 ( -16.38%)
   displ. norm   :     0.4989707 α      lambda       -0.2257810E-02
   maximum displ.:     0.3926474 α      in ANC's #3, #9, #11, ...

........................................................................
.............................. CYCLE   17 ..............................
........................................................................
   1    -30.3928684 -0.303929E+02  0.278E-01    1.81       0.0  T
   2    -30.3927218  0.146603E-03  0.198E-01    1.78       1.0  T
   3    -30.3927661 -0.443519E-04  0.156E-01    1.80       1.0  T
   4    -30.3930457 -0.279600E-03  0.156E-02    1.79       1.5  T
   5    -30.3930480 -0.225917E-05  0.832E-03    1.79       2.8  T
   6    -30.3930486 -0.575875E-06  0.281E-03    1.79       8.4  T
   7    -30.3930486 -0.609229E-07  0.138E-03    1.79      17.1  T
   8    -30.3930486 -0.940232E-08  0.736E-04    1.79      32.0  T
   9    -30.3930486 -0.145981E-09  0.261E-04    1.79      90.2  T
     SCC iter.                  ...        0 min,  0.010 sec
     gradient                   ...        0 min,  0.009 sec
 * total energy  :   -29.9162293 Eh     change       -0.1929627E-02 Eh
   gradient norm :     0.0400522 Eh/α   predicted    -0.1409983E-02 ( -26.93%)
   displ. norm   :     0.6361467 α      lambda       -0.3246300E-02
   maximum displ.:     0.5183656 α      in ANC's #3, #7, #9, ...

........................................................................
.............................. CYCLE   18 ..............................
........................................................................
   1    -30.4021089 -0.304021E+02  0.260E-01    1.79       0.0  T
   2    -30.4020860  0.229538E-04  0.170E-01    1.76       1.0  T
   3    -30.4019782  0.107827E-03  0.138E-01    1.78       1.0  T
   4    -30.4022275 -0.249302E-03  0.265E-02    1.77       1.0  T
   5    -30.4022350 -0.758517E-05  0.123E-02    1.76       1.9  T
   6    -30.4022364 -0.135492E-05  0.433E-03    1.77       5.4  T
   7    -30.4022365 -0.115893E-06  0.115E-03    1.77      20.5  T
   8    -30.4022365 -0.323038E-08  0.704E-04    1.77      33.5  T
   9    -30.4022365 -0.920409E-09  0.212E-04    1.77     111.1  T
     SCC iter.                  ...        0 min,  0.010 sec
     gradient                   ...        0 min,  0.009 sec
 * total energy  :   -29.9186278 Eh     change       -0.2398473E-02 Eh
   gradient norm :     0.0123827 Eh/α   predicted    -0.2280057E-02 (  -4.94%)
   displ. norm   :     0.7067676 α      lambda       -0.2146155E-02
   maximum displ.:     0.5727762 α      in ANC's #3, #7, #11, ...

........................................................................
.............................. CYCLE   19 ..............................
........................................................................
   1    -30.3976610 -0.303977E+02  0.373E-01    1.78       0.0  T
   2    -30.3975705  0.905761E-04  0.236E-01    1.76       1.0  T
   3    -30.3972062  0.364259E-03  0.214E-01    1.77       1.0  T
   4    -30.3978341 -0.627860E-03  0.247E-02    1.76       1.0  T
   5    -30.3978411 -0.705267E-05  0.116E-02    1.76       2.0  T
   6    -30.3978419 -0.797812E-06  0.439E-03    1.76       5.4  T
   7    -30.3978421 -0.226139E-06  0.180E-03    1.76      13.1  T
   8    -30.3978422 -0.104941E-07  0.961E-04    1.76      24.5  T
   9    -30.3978422 -0.683201E-09  0.375E-04    1.76      62.9  T
     SCC iter.                  ...        0 min,  0.010 sec
     gradient                   ...        0 min,  0.011 sec
 * total energy  :   -29.9202901 Eh     change       -0.1662289E-02 Eh
   gradient norm :     0.0172484 Eh/α   predicted    -0.1609130E-02 (  -3.20%)
   displ. norm   :     0.5697208 α      lambda       -0.1708536E-02
   maximum displ.:     0.4560535 α      in ANC's #3, #7, #11, ...

........................................................................
.............................. CYCLE   20 ..............................
........................................................................
   1    -30.4059370 -0.304059E+02  0.258E-01    1.80       0.0  T
   2    -30.4059445 -0.744958E-05  0.155E-01    1.76       1.0  T
   3    -30.4057629  0.181566E-03  0.124E-01    1.79       1.0  T
   4    -30.4059898 -0.226832E-03  0.262E-02    1.77       1.0  T
   5    -30.4059996 -0.983918E-05  0.973E-03    1.77       2.4  T
   6    -30.4060001 -0.456535E-06  0.452E-03    1.77       5.2  T
   7    -30.4060003 -0.238509E-06  0.123E-03    1.77      19.2  T
   8    -30.4060003 -0.812181E-08  0.655E-04    1.77      36.0  T
   9    -30.4060003  0.370495E-09  0.289E-04    1.77      81.6  T
     SCC iter.                  ...        0 min,  0.010 sec
     gradient                   ...        0 min,  0.009 sec
 * total energy  :   -29.9215688 Eh     change       -0.1278740E-02 Eh
   gradient norm :     0.0105848 Eh/α   predicted    -0.1131536E-02 ( -11.51%)
   displ. norm   :     0.5517578 α      lambda       -0.1065864E-02
   maximum displ.:     0.4663819 α      in ANC's #3, #7, #11, ...
 * RMSD in coord.:     0.9812579 α      energy gain  -0.4993331E-01 Eh

generating ANC from model Hessian ...
Using Lindh-Hessian (1995)
 Shifting diagonal of input Hessian by   9.342196551367263E-003
 Lowest  eigenvalues of input Hessian
    0.000000    0.000000    0.000000    0.000000    0.000000    0.000000
    0.010000    0.010454    0.010702    0.012992    0.015120    0.017155
    0.023165    0.025992    0.035944    0.043470    0.046171    0.064480
 Highest eigenvalues
    1.788674    1.835792    2.014129    2.043611    2.094549    2.585255
 

........................................................................
.............................. CYCLE   21 ..............................
........................................................................
   1    -30.4068521 -0.304069E+02  0.242E-01    1.80       0.0  T
   2    -30.4068530 -0.953395E-06  0.146E-01    1.77       1.0  T
   3    -30.4066676  0.185420E-03  0.122E-01    1.79       1.0  T
   4    -30.4068959 -0.228333E-03  0.222E-02    1.78       1.1  T
   5    -30.4069031 -0.715955E-05  0.675E-03    1.78       3.5  T
   6    -30.4069031 -0.475432E-07  0.364E-03    1.78       6.5  T
   7    -30.4069033 -0.188709E-06  0.676E-04    1.78      34.9  T
   8    -30.4069033 -0.107799E-08  0.360E-04    1.78      65.5  T
     SCC iter.                  ...        0 min,  0.009 sec
     gradient                   ...        0 min,  0.010 sec
 * total energy  :   -29.9223833 Eh     change       -0.8144785E-03 Eh
   gradient norm :     0.0117612 Eh/α   predicted     0.0000000E+00 (-100.00%)
   displ. norm   :     0.1112854 α      lambda       -0.3834815E-03
   maximum displ.:     0.0970696 α      in ANC's #2, #6, #10, ...

........................................................................
.............................. CYCLE   22 ..............................
........................................................................
   1    -30.4131193 -0.304131E+02  0.600E-02    1.79       0.0  T
   2    -30.4131230 -0.374061E-05  0.385E-02    1.78       1.0  T
   3    -30.4131230  0.256012E-07  0.244E-02    1.79       1.0  T
   4    -30.4131264 -0.339641E-05  0.122E-02    1.79       1.9  T
   5    -30.4131284 -0.199809E-05  0.268E-03    1.78       8.8  T
   6    -30.4131284 -0.659483E-07  0.152E-03    1.78      15.5  T
   7    -30.4131285 -0.150844E-07  0.590E-04    1.78      39.9  T
   8    -30.4131285 -0.195601E-08  0.204E-04    1.78     115.5  T
     SCC iter.                  ...        0 min,  0.011 sec
     gradient                   ...        0 min,  0.009 sec
 * total energy  :   -29.9226551 Eh     change       -0.2718339E-03 Eh
   gradient norm :     0.0039130 Eh/α   predicted    -0.1941152E-03 ( -28.59%)
   displ. norm   :     0.1590215 α      lambda       -0.2357439E-03
   maximum displ.:     0.1320327 α      in ANC's #2, #6, #8, ...

........................................................................
.............................. CYCLE   23 ..............................
........................................................................
   1    -30.4162384 -0.304162E+02  0.818E-02    1.80       0.0  T
   2    -30.4162439 -0.552177E-05  0.491E-02    1.78       1.0  T
   3    -30.4162411  0.282960E-05  0.297E-02    1.79       1.0  T
   4    -30.4162482 -0.705927E-05  0.696E-03    1.79       3.4  T
   5    -30.4162488 -0.630879E-06  0.190E-03    1.79      12.4  T
   6    -30.4162488 -0.441550E-08  0.121E-03    1.79      19.5  T
   7    -30.4162488 -0.111394E-07  0.562E-04    1.79      41.9  T
   8    -30.4162488 -0.480649E-08  0.177E-04    1.79     133.0  T
     SCC iter.                  ...        0 min,  0.009 sec
     gradient                   ...        0 min,  0.009 sec
 * total energy  :   -29.9228290 Eh     change       -0.1738892E-03 Eh
   gradient norm :     0.0037222 Eh/α   predicted    -0.1208532E-03 ( -30.50%)
   displ. norm   :     0.1760675 α      lambda       -0.1766847E-03
   maximum displ.:     0.1497395 α      in ANC's #2, #6, #3, ...

........................................................................
.............................. CYCLE   24 ..............................
........................................................................
   1    -30.4166539 -0.304167E+02  0.854E-02    1.80       0.0  T
   2    -30.4166575 -0.365427E-05  0.518E-02    1.78       1.0  T
   3    -30.4166489  0.861602E-05  0.338E-02    1.79       1.0  T
   4    -30.4166613 -0.124001E-04  0.901E-03    1.79       2.6  T
   5    -30.4166627 -0.141538E-05  0.273E-03    1.79       8.6  T
   6    -30.4166628 -0.687228E-07  0.124E-03    1.79      19.0  T
   7    -30.4166628 -0.124413E-07  0.306E-04    1.79      77.0  T
   8    -30.4166628 -0.719055E-09  0.114E-04    1.79     207.6  T
     SCC iter.                  ...        0 min,  0.009 sec
     gradient                   ...        0 min,  0.009 sec
 * total energy  :   -29.9229776 Eh     change       -0.1485606E-03 Eh
   gradient norm :     0.0045121 Eh/α   predicted    -0.9107665E-04 ( -38.69%)
   displ. norm   :     0.1872621 α      lambda       -0.1749635E-03
   maximum displ.:     0.1579700 α      in ANC's #2, #6, #3, ...

........................................................................
.............................. CYCLE   25 ..............................
........................................................................
   1    -30.4155785 -0.304156E+02  0.959E-02    1.79       0.0  T
   2    -30.4155799 -0.146387E-05  0.588E-02    1.78       1.0  T
   3    -30.4155575  0.224017E-04  0.443E-02    1.79       1.0  T
   4    -30.4155855 -0.279758E-04  0.987E-03    1.78       2.4  T
   5    -30.4155872 -0.167927E-05  0.232E-03    1.78      10.1  T
   6    -30.4155872 -0.291242E-07  0.124E-03    1.78      19.0  T
   7    -30.4155872 -0.123934E-07  0.278E-04    1.78      84.8  T
   8    -30.4155872 -0.390269E-09  0.144E-04    1.78     163.3  T
     SCC iter.                  ...        0 min,  0.009 sec
     gradient                   ...        0 min,  0.009 sec
 * total energy  :   -29.9231261 Eh     change       -0.1485480E-03 Eh
   gradient norm :     0.0035181 Eh/α   predicted    -0.9055033E-04 ( -39.04%)
   displ. norm   :     0.1855687 α      lambda       -0.1467754E-03
   maximum displ.:     0.1598481 α      in ANC's #2, #3, #6, ...

........................................................................
.............................. CYCLE   26 ..............................
........................................................................
   1    -30.4142696 -0.304143E+02  0.945E-02    1.79       0.0  T
   2    -30.4142698 -0.166909E-06  0.578E-02    1.78       1.0  T
   3    -30.4142419  0.279140E-04  0.461E-02    1.78       1.0  T
   4    -30.4142756 -0.337339E-04  0.812E-03    1.78       2.9  T
   5    -30.4142766 -0.993994E-06  0.253E-03    1.78       9.3  T
   6    -30.4142766 -0.215329E-07  0.129E-03    1.78      18.2  T
   7    -30.4142766 -0.178972E-07  0.341E-04    1.78      69.2  T
   8    -30.4142766 -0.390294E-09  0.188E-04    1.78     125.6  T
     SCC iter.                  ...        0 min,  0.009 sec
     gradient                   ...        0 min,  0.010 sec
 * total energy  :   -29.9232476 Eh     change       -0.1215029E-03 Eh
   gradient norm :     0.0030027 Eh/α   predicted    -0.7591651E-04 ( -37.52%)
   displ. norm   :     0.1755617 α      lambda       -0.1101059E-03
   maximum displ.:     0.1520223 α      in ANC's #2, #3, #8, ...

........................................................................
.............................. CYCLE   27 ..............................
........................................................................
   1    -30.4136936 -0.304137E+02  0.956E-02    1.79       0.0  T
   2    -30.4136937 -0.115821E-06  0.571E-02    1.78       1.0  T
   3    -30.4136646  0.291525E-04  0.445E-02    1.78       1.0  T
   4    -30.4136980 -0.334468E-04  0.707E-03    1.78       3.3  T
   5    -30.4136986 -0.565547E-06  0.298E-03    1.78       7.9  T
   6    -30.4136986 -0.459910E-07  0.124E-03    1.78      19.1  T
   7    -30.4136986 -0.198785E-07  0.310E-04    1.78      76.2  T
   8    -30.4136986 -0.303771E-09  0.172E-04    1.78     136.9  T
     SCC iter.                  ...        0 min,  0.009 sec
     gradient                   ...        0 min,  0.009 sec
 * total energy  :   -29.9233392 Eh     change       -0.9161836E-04 Eh
   gradient norm :     0.0033844 Eh/α   predicted    -0.5675147E-04 ( -38.06%)
   displ. norm   :     0.1910091 α      lambda       -0.1002900E-03
   maximum displ.:     0.1668921 α      in ANC's #2, #8, #3, ...

........................................................................
.............................. CYCLE   28 ..............................
........................................................................
   1    -30.4137265 -0.304137E+02  0.109E-01    1.79       0.0  T
   2    -30.4137269 -0.381484E-06  0.640E-02    1.78       1.0  T
   3    -30.4136937  0.332275E-04  0.461E-02    1.79       1.0  T
   4    -30.4137308 -0.371156E-04  0.763E-03    1.78       3.1  T
   5    -30.4137312 -0.450650E-06  0.383E-03    1.78       6.1  T
   6    -30.4137313 -0.107176E-06  0.130E-03    1.78      18.1  T
   7    -30.4137314 -0.241327E-07  0.298E-04    1.78      79.0  T
   8    -30.4137314 -0.293230E-09  0.164E-04    1.78     143.8  T
     SCC iter.                  ...        0 min,  0.009 sec
     gradient                   ...        0 min,  0.009 sec
 * total energy  :   -29.9234183 Eh     change       -0.7905737E-04 Eh
   gradient norm :     0.0033117 Eh/α   predicted    -0.5197307E-04 ( -34.26%)
   displ. norm   :     0.1991606 α      lambda       -0.7604866E-04
   maximum displ.:     0.1760847 α      in ANC's #2, #8, #3, ...

........................................................................
.............................. CYCLE   29 ..............................
........................................................................
   1    -30.4142055 -0.304142E+02  0.116E-01    1.79       0.0  T
   2    -30.4142062 -0.724087E-06  0.673E-02    1.78       1.0  T
   3    -30.4141761  0.301309E-04  0.434E-02    1.79       1.0  T
   4    -30.4142093 -0.331848E-04  0.791E-03    1.78       3.0  T
   5    -30.4142097 -0.396090E-06  0.425E-03    1.78       5.5  T
   6    -30.4142098 -0.149614E-06  0.132E-03    1.78      17.8  T
   7    -30.4142099 -0.254451E-07  0.276E-04    1.78      85.3  T
   8    -30.4142099 -0.277506E-09  0.147E-04    1.78     160.5  T
     SCC iter.                  ...        0 min,  0.009 sec
     gradient                   ...        0 min,  0.009 sec
 * total energy  :   -29.9234701 Eh     change       -0.5184344E-04 Eh
   gradient norm :     0.0025262 Eh/α   predicted    -0.3953376E-04 ( -23.74%)
   displ. norm   :     0.1105076 α      lambda       -0.2388541E-04
   maximum displ.:     0.0987790 α      in ANC's #2, #8, #3, ...

........................................................................
.............................. CYCLE   30 ..............................
........................................................................
   1    -30.4150741 -0.304151E+02  0.638E-02    1.79       0.0  T
   2    -30.4150745 -0.357438E-06  0.370E-02    1.78       1.0  T
   3    -30.4150685  0.605359E-05  0.197E-02    1.79       1.2  T
   4    -30.4150750 -0.659413E-05  0.427E-03    1.78       5.5  T
   5    -30.4150752 -0.122769E-06  0.239E-03    1.78       9.9  T
   6    -30.4150752 -0.492604E-07  0.765E-04    1.78      30.8  T
   7    -30.4150752 -0.868792E-08  0.152E-04    1.78     155.5  T
     SCC iter.                  ...        0 min,  0.008 sec
     gradient                   ...        0 min,  0.009 sec
 * total energy  :   -29.9234850 Eh     change       -0.1488606E-04 Eh
   gradient norm :     0.0011812 Eh/α   predicted    -0.1208956E-04 ( -18.79%)
   displ. norm   :     0.0450942 α      lambda       -0.4262921E-05
   maximum displ.:     0.0399391 α      in ANC's #2, #3, #8, ...

........................................................................
.............................. CYCLE   31 ..............................
........................................................................
   1    -30.4159635 -0.304160E+02  0.241E-02    1.79       0.0  T
   2    -30.4159636 -0.110980E-06  0.141E-02    1.78       1.7  T
   3    -30.4159633  0.298409E-06  0.523E-03    1.79       4.5  T
   4    -30.4159637 -0.347653E-06  0.117E-03    1.78      20.2  T
   5    -30.4159637 -0.808427E-08  0.750E-04    1.78      31.4  T
   6    -30.4159637 -0.450409E-08  0.310E-04    1.78      76.0  T
     SCC iter.                  ...        0 min,  0.007 sec
     gradient                   ...        0 min,  0.009 sec
 * total energy  :   -29.9234880 Eh     change       -0.2980278E-05 Eh
   gradient norm :     0.0006428 Eh/α   predicted    -0.2131712E-05 ( -28.47%)
   displ. norm   :     0.0087831 α      lambda       -0.7776282E-06
   maximum displ.:     0.0043084 α      in ANC's #8, #2, #4, ...

   *** GEOMETRY OPTIMIZATION CONVERGED AFTER 31 ITERATIONS ***

------------------------------------------------------------------------
 total energy gain   :        -0.0518525 Eh      -32.5379 kcal/mol
 total RMSD          :         1.2638929 a0        0.6688 Å
 total power (kW/mol):        -4.3915728 (step) -174.9570 (real)
------------------------------------------------------------------------

 ANCopt (total)                0 d,  0 h,  0 min,  0.778 sec
 optimizer setup                ...        0 min,  0.001 sec (  0.067%)
 model hessian                  ...        0 min,  0.004 sec (  0.547%)
 ANC generation                 ...        0 min,  0.001 sec (  0.182%)
 coordinate transformation      ...        0 min,  0.000 sec (  0.058%)
 single point calculation       ...        0 min,  0.757 sec ( 97.279%)
 optimization log               ...        0 min,  0.006 sec (  0.720%)
 hessian update                 ...        0 min,  0.000 sec (  0.056%)
 rational function              ...        0 min,  0.006 sec (  0.813%)

================
 final structure:
================
18
 xtb: 6.4.1 (afa7bdf)
C        -3.69935348582755   -0.55469612203020    0.69935053683175
C        -2.39466347821192   -0.16777854770157    0.19408192352150
C        -1.31164447677412    0.15068754238365   -0.22322618557744
C        -0.06003619350656    0.54476194683016   -0.74308732388514
C         1.11357613621089    0.10182689276348   -0.04413011783797
N         1.04836805748204   -0.63471427423698    1.06840031768795
N         2.32334909753102   -0.86011548316784    1.44017141903638
C         3.20952600655031   -0.28660521016608    0.59198213407395
C         2.48081856560577    0.34225552401823   -0.37616359295637
C         0.01824982214232    1.32273627715150   -1.87435388378484
S        -1.25514362302293    1.91646956662365   -2.79673618740116
H        -3.96387852266093   -1.55890485138051    0.35624533502394
H        -4.46016980829650    0.14356441073564    0.34408717688539
H        -3.70315538646085   -0.54994115774857    1.79267454853729
H         2.51260430860929   -1.40501727642064    2.26418631905460
H         4.26955724650603   -0.37286715654045    0.74654169787348
H         2.86254467847930    0.89725208385011   -1.20934318711958
H         1.00945205564451    1.59979983503656   -2.23068092996398
 
 Bond Distances (Angstroems)
 ---------------------------
C1-C2=1.4516         C1-H12=1.0937        C1-H13=1.0921        C1-H14=1.0933        C2-C1=1.4516         C2-C3=1.2035         
C3-C2=1.2035         C3-C4=1.4114         C4-C3=1.4114         C4-C5=1.4360         C4-C10=1.3752        C5-C4=1.4360         
C5-N6=1.3358         C5-C9=1.4274         N6-C5=1.3358         N6-N7=1.3471         N7-N6=1.3471         N7-C8=1.3541         
N7-H15=1.0059        C8-N7=1.3541         C8-C9=1.3652         C8-H16=1.0747        C9-C5=1.4274         C9-C8=1.3652         
C9-H17=1.0714        C10-C4=1.3752        C10-S11=1.6807       C10-H18=1.0891       S11-C10=1.6807       H12-C1=1.0937        
H13-C1=1.0921        H14-C1=1.0933        H15-N7=1.0059        H16-C8=1.0747        H17-C9=1.0714        H18-C10=1.0891       
 C  H  Rav=1.0857 sigma=0.0091  Rmin=1.0714  Rmax=1.0937     6
 C  C  Rav=1.3815 sigma=0.0783  Rmin=1.2035  Rmax=1.4516     7
 N  H  Rav=1.0059 sigma=0.0000  Rmin=1.0059  Rmax=1.0059     1
 N  C  Rav=1.3450 sigma=0.0091  Rmin=1.3358  Rmax=1.3541     2
 N  N  Rav=1.3471 sigma=0.0000  Rmin=1.3471  Rmax=1.3471     1
 S  C  Rav=1.6807 sigma=0.0000  Rmin=1.6807  Rmax=1.6807     1
 
 selected bond angles (degree)
 --------------------
H12-C1-C2=110.67               H13-C1-C2=110.03               H13-C1-H12=108.45              H14-C1-C2=110.49               
H14-C1-H12=108.47              H14-C1-H13=108.67              C3-C2-C1=179.85                C4-C3-C2=178.33                
C5-C4-C3=117.34                C10-C4-C3=120.76               C10-C4-C5=121.90               N6-C5-C4=122.38                
C9-C5-C4=128.15                C9-C5-N6=109.47                N7-N6-C5=106.02                C8-N7-N6=112.07                
H15-N7-N6=119.66               H15-N7-C8=128.28               C9-C8-N7=106.86                H16-C8-N7=121.43               
H16-C8-C9=131.72               C8-C9-C5=105.59                H17-C9-C5=127.55               H17-C9-C8=126.86               
S11-C10-C4=127.46              H18-C10-C4=117.70              H18-C10-S11=114.84             
 
 selected dihedral angles (degree)
 ---------------------------------
C3-C2-C1-H12=296.78           C3-C2-C1-H13=176.94           C3-C2-C1-H14= 56.95           C4-C3-C2-C1=160.78            
C5-C4-C3-C2=179.66            C10-C4-C3-C2=359.70           N6-C5-C4-C3=358.86            N6-C5-C4-C10=178.82           
C9-C5-C4-C3=178.80            C9-C5-C4-C10=358.76           N7-N6-C5-C4=179.98            N7-N6-C5-C9=  0.03            
C8-N7-N6-C5=359.95            H15-N7-N6-C5=180.17           C9-C8-N7-N6=  0.05            C9-C8-N7-H15=179.80           
H16-C8-N7-N6=180.04           H16-C8-N7-H15=359.79          C8-C9-C5-C4=180.05            C8-C9-C5-N6=  0.00            
H17-C9-C5-C4=359.96           H17-C9-C5-N6=179.90           C5-C9-C8-N7=359.97            C5-C9-C8-H16=179.98           
H17-C9-C8-N7=180.06           H17-C9-C8-H16=  0.07          S11-C10-C4-C3=  0.00          S11-C10-C4-C5=180.03          
H18-C10-C4-C3=179.86          H18-C10-C4-C5=359.89          
           -------------------------------------------------
          |                Final Singlepoint                |
           -------------------------------------------------

          ...................................................
          :                      SETUP                      :
          :.................................................:
          :  # basis functions                  57          :
          :  # atomic orbitals                  56          :
          :  # shells                           30          :
          :  # electrons                        56          :
          :  max. iterations                   250          :
          :  Hamiltonian                  GFN2-xTB          :
          :  restarted?                      false          :
          :  GBSA solvation                  false          :
          :  PC potential                    false          :
          :  electronic temp.          300.0000000     K    :
          :  accuracy                    1.0000000          :
          :  -> integral cutoff          0.2500000E+02      :
          :  -> integral neglect         0.1000000E-07      :
          :  -> SCF convergence          0.1000000E-05 Eh   :
          :  -> wf. convergence          0.1000000E-03 e    :
          :  Broyden damping             0.4000000          :
          ...................................................

 iter      E             dE          RMSdq      gap      omega  full diag
   1    -30.4159637 -0.304160E+02  0.108E-04    1.78       0.0  T
   2    -30.4159637  0.336122E-10  0.980E-05    1.78     240.6  T
   3    -30.4159637 -0.144325E-09  0.416E-05    1.78     566.8  T

   *** convergence criteria satisfied after 3 iterations ***

         #    Occupation            Energy/Eh            Energy/eV
      -------------------------------------------------------------
         1        2.0000           -0.5544015             -15.0860
       ...           ...                  ...                  ...
        22        2.0000           -0.2637706              -7.1776
        23        2.0000           -0.2541710              -6.9163
        24        2.0000           -0.2487371              -6.7685
        25        2.0000           -0.2337300              -6.3601
        26        2.0000           -0.2277499              -6.1974
        27        2.0000           -0.1592273              -4.3328
        28        2.0000           -0.1499817              -4.0812 (HOMO)
        29                         -0.0844034              -2.2967 (LUMO)
        30                         -0.0621518              -1.6912
        31                         -0.0065510              -0.1783
        32                          0.0137096               0.3731
        33                          0.0524826               1.4281
       ...                                ...                  ...
        56                          1.5873927              43.1952
      -------------------------------------------------------------
                  HL-Gap            0.0655782 Eh            1.7845 eV
             Fermi-level           -0.1171925 Eh           -3.1890 eV
 
 localization/xTB-IFF output generation
 averaging CT terms over            2  occ. levels
 averaging CT terms over            1  virt. levels
 dipole moment from electron density (au)
     X       Y       Z   
   2.1360  -2.4684   3.5839  total (Debye):   12.322
cpu  time for init local    0.00 s
wall time for init local    0.00 s
 doing rotations ...
 initialization of trafo matrix to unity
iteration     50  convergence  0.26056417D-03

 converged in     89 iterations, threshold :   0.99959791D-06
 doing transformations ...
 lmo centers(Z=2) and atoms on file <lmocent.coord>
 LMO Fii/eV  ncent    charge center   contributions...
    1 sigma -13.23   1.95   3.25348  -1.47935   2.39023    7N :  0.57    6N :  0.44
    2 sigma -12.91   1.92   5.18652  -1.32537   1.97182    7N :  0.59    8C :  0.42
    3 sigma -12.71   1.97   4.62337  -2.26832   3.67818    7N :  0.56   15H :  0.44
    4 sigma -11.35   2.01   7.41575  -0.65187   1.31567   16H :  0.51    8C :  0.49
    5 sigma -10.65   1.98  -5.76994  -0.69065   0.85283    1C :  0.52    2C :  0.48
    6 sigma -10.63   2.00   3.39703   0.47968  -0.49629    9C :  0.52    5C :  0.48
    7 sigma -10.49   2.00  -6.96193  -1.03222   2.67752    1C :  0.50   14H :  0.50
    8 sigma -10.47   2.00  -7.28627  -2.29376   0.87787    1C :  0.50   12H :  0.50
    9 sigma -10.41   2.00  -7.90537  -0.16767   0.86662    1C :  0.51   13H :  0.50
   10 sigma -10.35   2.01   5.16724   1.35245  -1.77021   17H :  0.51    9C :  0.49
   11 sigma -10.25   2.03   1.00358   0.60078  -0.72930    5C :  0.52    4C :  0.47
   12 sigma -10.05   2.02  -1.32505   0.63899  -0.88790    3C :  0.52    4C :  0.48
   13 pi     -9.88   2.16   5.27060  -0.33883  -0.11919    9C :  0.49    8C :  0.47
   14 pi     -9.83   2.17   5.23609   0.50958   0.43856    9C :  0.49    8C :  0.46
   15 pi     -9.78   2.10   2.11260  -0.95827   0.82735    6N :  0.56    5C :  0.41
   16 pi     -9.77   1.56   4.42508  -1.20076   2.47681    7N :  0.79    8C :  0.12
   17 pi     -9.75   2.11   2.10787  -0.18698   1.33228    6N :  0.56    5C :  0.41
   18 sigma  -9.29   1.99   1.31271   2.85191  -3.99479   18H :  0.52   10C :  0.48
   19 delpi  -8.40   2.27  -0.06449   1.15978  -2.44752    4C :  0.53   10C :  0.39
   20 delpi  -8.39   2.27  -0.08724   1.95286  -1.89426    4C :  0.53   10C :  0.39
   21 pi     -8.37   2.02  -3.25997  -0.26882   0.45650    2C :  0.51    3C :  0.49
   22 pi     -8.32   2.06  -3.60296  -0.32304  -0.53114    2C :  0.51    3C :  0.48
   23 pi     -8.31   2.05  -3.67635   0.55859  -0.03178    2C :  0.51    3C :  0.48
   24 LP     -7.86   1.02  -1.28255   5.27732  -7.63832   11S :  0.99
   25 LP     -7.76   1.02   0.56139  -1.87215   3.00489    6N :  0.99
   26 LP     -7.75   1.03  -5.13290   2.84839  -4.28591   11S :  0.99
   27 pi     -7.69   1.84  -1.47430   3.61874  -4.25930   11S :  0.66   10C :  0.33
   28 pi     -7.69   1.84  -1.44792   2.70504  -4.89088   11S :  0.66   10C :  0.33
 starting deloc pi regularization ...
 thr    2.20000000000000      # pi deloc LMO           7
 files:
 coordprot.0/xtbscreen.xyz/xtblmoinfo/lmocent.coord
 with protonation site input, xtbdock and
 LMO center info written
 

 SCC (total)                   0 d,  0 h,  0 min,  0.036 sec
 SCC setup                      ...        0 min,  0.000 sec (  0.423%)
 Dispersion                     ...        0 min,  0.000 sec (  0.314%)
 classical contributions        ...        0 min,  0.000 sec (  0.096%)
 integral evaluation            ...        0 min,  0.004 sec ( 12.043%)
 iterations                     ...        0 min,  0.004 sec ( 11.203%)
 molecular gradient             ...        0 min,  0.010 sec ( 26.670%)
 printout                       ...        0 min,  0.018 sec ( 49.116%)

         :::::::::::::::::::::::::::::::::::::::::::::::::::::
         ::                     SUMMARY                     ::
         :::::::::::::::::::::::::::::::::::::::::::::::::::::
         :: total energy             -29.923487996444 Eh    ::
         :: gradient norm              0.000642957120 Eh/a0 ::
         :: HOMO-LUMO gap              1.784474577737 eV    ::
         ::.................................................::
         :: SCC energy               -30.415963693410 Eh    ::
         :: -> isotropic ES            0.117105868072 Eh    ::
         :: -> anisotropic ES          0.012962762638 Eh    ::
         :: -> anisotropic XC          0.022219503977 Eh    ::
         :: -> dispersion             -0.017067375473 Eh    ::
         :: repulsion energy           0.492476182701 Eh    ::
         :: add. restraining           0.000000000000 Eh    ::
         :: total charge              -1.000000000000 e     ::
         :::::::::::::::::::::::::::::::::::::::::::::::::::::

           -------------------------------------------------
          |                Property Printout                |
           -------------------------------------------------

    * Orbital Energies and Occupations

         #    Occupation            Energy/Eh            Energy/eV
      -------------------------------------------------------------
         1        2.0000           -0.5544015             -15.0860
       ...           ...                  ...                  ...
        16        2.0000           -0.3523846              -9.5889
        17        2.0000           -0.3464954              -9.4286
        18        2.0000           -0.3252016              -8.8492
        19        2.0000           -0.2990769              -8.1383
        20        2.0000           -0.2963125              -8.0631
        21        2.0000           -0.2689645              -7.3189
        22        2.0000           -0.2637706              -7.1776
        23        2.0000           -0.2541710              -6.9163
        24        2.0000           -0.2487371              -6.7685
        25        2.0000           -0.2337300              -6.3601
        26        2.0000           -0.2277499              -6.1974
        27        2.0000           -0.1592273              -4.3328
        28        2.0000           -0.1499817              -4.0812 (HOMO)
        29                         -0.0844034              -2.2967 (LUMO)
        30                         -0.0621518              -1.6912
        31                         -0.0065510              -0.1783
        32                          0.0137096               0.3731
        33                          0.0524826               1.4281
        34                          0.0914855               2.4894
        35                          0.1347924               3.6679
        36                          0.2005390               5.4569
        37                          0.2055383               5.5930
        38                          0.2061852               5.6106
        39                          0.2102017               5.7199
       ...                                ...                  ...
        56                          1.5873927              43.1952
      -------------------------------------------------------------
                  HL-Gap            0.0655782 Eh            1.7845 eV
             Fermi-level           -0.1171925 Eh           -3.1890 eV

     #   Z          covCN         q      C6AA      α(0)
     1   6 C        3.752    -0.064    21.793     6.657
     2   6 C        1.960    -0.087    33.466     9.342
     3   6 C        1.984    -0.031    31.888     9.119
     4   6 C        2.987    -0.040    28.975     8.830
     5   6 C        3.132     0.070    26.239     8.386
     6   7 N        1.985    -0.280    28.070     7.857
     7   7 N        2.969    -0.030    21.812     6.937
     8   6 C        2.981    -0.014    28.365     8.736
     9   6 C        3.018    -0.083    30.054     8.993
    10   6 C        2.900     0.063    26.579     8.453
    11  16 S        1.017    -0.644   168.690    21.967
    12   1 H        0.924     0.017     2.780     2.607
    13   1 H        0.924     0.025     2.652     2.546
    14   1 H        0.924     0.016     2.797     2.615
    15   1 H        0.860     0.126     1.580     1.969
    16   1 H        0.926    -0.010     3.240     2.815
    17   1 H        0.926    -0.002     3.087     2.747
    18   1 H        0.925    -0.032     3.672     2.997

 Mol. C6AA /au·bohr⁶  :       5946.990781
 Mol. C8AA /au·bohr⁸  :     165445.232206
 Mol. α(0) /au        :        123.574430


Wiberg/Mayer (AO) data.
largest (>0.10) Wiberg bond orders for each atom

 ---------------------------------------------------------------------------
     #   Z sym  total        # sym  WBO       # sym  WBO       # sym  WBO
 ---------------------------------------------------------------------------
     1   6 C    3.998 --     2 C    1.054    14 H    0.973    13 H    0.972
                            12 H    0.972
     2   6 C    3.969 --     3 C    2.729     1 C    1.054
     3   6 C    3.977 --     2 C    2.729     4 C    1.124
     4   6 C    3.962 --    10 C    1.478     5 C    1.125     3 C    1.124
                            11 S    0.134
     5   6 C    3.970 --     6 N    1.423     9 C    1.248     4 C    1.125
     6   7 N    2.919 --     5 C    1.423     7 N    1.156     8 C    0.155
     7   7 N    3.554 --     8 C    1.241     6 N    1.156    15 H    0.955
                             9 C    0.100
     8   6 C    3.949 --     9 C    1.562     7 N    1.241    16 H    0.969
                             6 N    0.155
     9   6 C    3.973 --     8 C    1.562     5 C    1.248    17 H    0.972
                             7 N    0.100
    10   6 C    3.975 --     4 C    1.478    11 S    1.369    18 H    0.964
    11  16 S    1.677 --    10 C    1.369     4 C    0.134
    12   1 H    0.994 --     1 C    0.972
    13   1 H    0.999 --     1 C    0.972
    14   1 H    0.998 --     1 C    0.973
    15   1 H    0.984 --     7 N    0.955
    16   1 H    0.999 --     8 C    0.969
    17   1 H    1.000 --     9 C    0.972
    18   1 H    0.998 --    10 C    0.964
 ---------------------------------------------------------------------------

Topologies differ in total number of bonds
Writing topology from bond orders to xtbtopo.mol

molecular dipole:
                 x           y           z       tot (Debye)
 q only:        1.432      -2.261       3.264
   full:        2.136      -2.468       3.584      12.321
molecular quadrupole (traceless):
                xx          xy          yy          xz          yz          zz
 q only:        5.513       6.564       3.973      -9.867      17.533      -9.486
  q+dip:       12.949       9.284       0.479     -13.280      17.936     -13.428
   full:       11.146       8.176       1.947     -11.824      19.468     -13.093

           -------------------------------------------------
          |                Geometry Summary                 |
           -------------------------------------------------

      molecular mass/u    :      163.2196663
   center of mass at/Å    :       -0.0136825       0.3474545      -0.4520623
  moments of inertia/u·Å² :        0.4003050E+03   0.7866575E+03   0.1183751E+04
rotational constants/cm⁻¹ :        0.4211197E-01   0.2142944E-01   0.1424086E-01

 * 16 selected distances

     #   Z          #   Z                                           value/Å
     2   6 C        3   6 C                                       1.2035352
     4   6 C        5   6 C                                       1.4360009
     5   6 C        6   7 N                                       1.3358402
     6   7 N        7   7 N                                       1.3470695
     7   7 N        8   6 C                                       1.3541228
     5   6 C        9   6 C                                       1.4273766
     8   6 C        9   6 C                                       1.3652057
     4   6 C       10   6 C                                       1.3751861
    10   6 C       11  16 S                                       1.6807258 (max)
     1   6 C       12   1 H                                       1.0936772
     1   6 C       13   1 H                                       1.0920720
     1   6 C       14   1 H                                       1.0933410
     7   7 N       15   1 H                                       1.0058509 (min)
     8   6 C       16   1 H                                       1.0747074
     9   6 C       17   1 H                                       1.0714123
    10   6 C       18   1 H                                       1.0891350

 * 6 distinct bonds (by element types)

   Z      Z             #   av. dist./Å        max./Å        min./Å
   1 H    6 C           6     1.0857241     1.0936772     1.0714123
   6 C    6 C           5     1.3614609     1.4360009     1.2035352
   1 H    7 N           1     1.0058509     1.0058509     1.0058509
   6 C    7 N           2     1.3449815     1.3541228     1.3358402
   7 N    7 N           1     1.3470695     1.3470695     1.3470695
   6 C   16 S           1     1.6807258     1.6807258     1.6807258


optimized geometry written to: xtbopt.xyz


           -------------------------------------------------
          | TOTAL ENERGY              -29.923487996444 Eh   |
          | GRADIENT NORM               0.000642957120 Eh/α |
          | HOMO-LUMO GAP               1.784474577737 eV   |
           -------------------------------------------------

------------------------------------------------------------------------
 * finished run on 2022/11/02 at 18:13:36.592     
------------------------------------------------------------------------
 total:
 * wall-time:     0 d,  0 h,  0 min,  0.941 sec
 *  cpu-time:     0 d,  0 h,  0 min,  0.886 sec
 * ratio c/w:     0.942 speedup
 SCF:
 * wall-time:     0 d,  0 h,  0 min,  0.052 sec
 *  cpu-time:     0 d,  0 h,  0 min,  0.046 sec
 * ratio c/w:     0.878 speedup
 ANC optimizer:
 * wall-time:     0 d,  0 h,  0 min,  0.831 sec
 *  cpu-time:     0 d,  0 h,  0 min,  0.812 sec
 * ratio c/w:     0.978 speedup

