      -----------------------------------------------------------      
     |                   =====================                   |     
     |                           x T B                           |     
     |                   =====================                   |     
     |                         S. Grimme                         |     
     |          Mulliken Center for Theoretical Chemistry        |     
     |                    University of Bonn                     |     
      -----------------------------------------------------------      

   * xtb version 6.4.1 (afa7bdf) compiled by 'ehlert@majestix' on 2021-06-10

   xtb is free software: you can redistribute it and/or modify it under
   the terms of the GNU Lesser General Public License as published by
   the Free Software Foundation, either version 3 of the License, or
   (at your option) any later version.
   
   xtb is distributed in the hope that it will be useful,
   but WITHOUT ANY WARRANTY; without even the implied warranty of
   MERCHANTABILITY or FITNESS FOR A PARTICULAR PURPOSE.  See the
   GNU Lesser General Public License for more details.
   
   Cite this work as:
   * C. Bannwarth, E. Caldeweyher, S. Ehlert, A. Hansen, P. Pracht,
     J. Seibert, S. Spicher, S. Grimme, WIREs Comput. Mol. Sci., 2020, 11,
     e01493. DOI: 10.1002/wcms.1493
   
   for GFN2-xTB:
   * C. Bannwarth, S. Ehlert and S. Grimme., J. Chem. Theory Comput., 2019,
     15, 1652-1671. DOI: 10.1021/acs.jctc.8b01176
   for GFN1-xTB:
   * S. Grimme, C. Bannwarth, P. Shushkov, J. Chem. Theory Comput., 2017,
     13, 1989-2009. DOI: 10.1021/acs.jctc.7b00118
   for GFN0-xTB:
   * P. Pracht, E. Caldeweyher, S. Ehlert, S. Grimme, ChemRxiv, 2019, preprint.
     DOI: 10.26434/chemrxiv.8326202.v1
   for GFN-FF:
   * S. Spicher and S. Grimme, Angew. Chem. Int. Ed., 2020, 59, 15665-15673.
     DOI: 10.1002/anie.202004239
   
   for DFT-D4:
   * E. Caldeweyher, C. Bannwarth and S. Grimme, J. Chem. Phys., 2017,
     147, 034112. DOI: 10.1063/1.4993215
   * E. Caldeweyher, S. Ehlert, A. Hansen, H. Neugebauer, S. Spicher,
     C. Bannwarth and S. Grimme, J. Chem. Phys., 2019, 150, 154122.
     DOI: 10.1063/1.5090222
   * E. Caldeweyher, J.-M. Mewes, S. Ehlert and S. Grimme, Phys. Chem. Chem. Phys.
     2020, 22, 8499-8512. DOI: 10.1039/D0CP00502A
   
   for sTDA-xTB:
   * S. Grimme and C. Bannwarth, J. Chem. Phys., 2016, 145, 054103.
     DOI: 10.1063/1.4959605
   
   in the mass-spec context:
   * V. Asgeirsson, C. Bauer and S. Grimme, Chem. Sci., 2017, 8, 4879.
     DOI: 10.1039/c7sc00601b
   * J. Koopman and S. Grimme, ACS Omega 2019, 4, 12, 15120-15133.
     DOI: 10.1021/acsomega.9b02011
   
   for metadynamics refer to:
   * S. Grimme, J. Chem. Theory Comput., 2019, 155, 2847-2862
     DOI: 10.1021/acs.jctc.9b00143
   
   for SPH calculations refer to:
   * S. Spicher and S. Grimme, J. Chem. Theory Comput., 2021, 17, 1701-1714
     DOI: 10.1021/acs.jctc.0c01306
   
   with help from (in alphabetical order)
   P. Atkinson, C. Bannwarth, F. Bohle, G. Brandenburg, E. Caldeweyher
   M. Checinski, S. Dohm, S. Ehlert, S. Ehrlich, I. Gerasimov, J. Koopman
   C. Lavigne, S. Lehtola, F. März, M. Müller, F. Musil, H. Neugebauer
   J. Pisarek, C. Plett, P. Pracht, J. Seibert, P. Shushkov, S. Spicher
   M. Stahn, M. Steiner, T. Strunk, J. Stückrath, T. Rose, and J. Unsleber
   
 * started run on 2022/11/02 at 18:13:37.263     

           -------------------------------------------------
          |                Calculation Setup                |
           -------------------------------------------------

          program call               : /lustre/hpc/kemi/borup/pKalculator/dep/xtb-6.4.1/bin/xtb --gfn 2 /lustre/hpc/kemi/borup/pKalculator/calc/test#-1=1/conf05/test#-1=1_conf05_gfn2.xyz --opt --lmo --chrg -1 --uhf 0
          hostname                   : fend01.cluster
          coordinate file            : /lustre/hpc/kemi/borup/pKalculator/calc/test#-1=1/conf05/test#-1=1_conf05_gfn2.xyz
          omp threads                :                     1
          number of atoms            :                    18
          number of electrons        :                    56
          charge                     :                    -1
          spin                       :                   0.0
          first test random number   :      0.81113514161971

   ID    Z sym.   atoms
    1    6 C      1-5, 8-10
    2    7 N      6, 7
    3   16 S      11
    4    1 H      12-18

           -------------------------------------------------
          |                 G F N 2 - x T B                 |
           -------------------------------------------------

        Reference                      10.1021/acs.jctc.8b01176
      * Hamiltonian:
        H0-scaling (s, p, d)           1.850000    2.230000    2.230000
        zeta-weighting                 0.500000
      * Dispersion:
        s8                             2.700000
        a1                             0.520000
        a2                             5.000000
        s9                             5.000000
      * Repulsion:
        kExp                           1.500000    1.000000
        rExp                           1.000000
      * Coulomb:
        alpha                          2.000000
        third order                    shell-resolved
        anisotropic                    true
        a3                             3.000000
        a5                             4.000000
        cn-shift                       1.200000
        cn-exp                         4.000000
        max-rad                        5.000000


          ...................................................
          :                      SETUP                      :
          :.................................................:
          :  # basis functions                  57          :
          :  # atomic orbitals                  56          :
          :  # shells                           30          :
          :  # electrons                        56          :
          :  max. iterations                   250          :
          :  Hamiltonian                  GFN2-xTB          :
          :  restarted?                      false          :
          :  GBSA solvation                  false          :
          :  PC potential                    false          :
          :  electronic temp.          300.0000000     K    :
          :  accuracy                    1.0000000          :
          :  -> integral cutoff          0.2500000E+02      :
          :  -> integral neglect         0.1000000E-07      :
          :  -> SCF convergence          0.1000000E-05 Eh   :
          :  -> wf. convergence          0.1000000E-03 e    :
          :  Broyden damping             0.4000000          :
          ...................................................

 iter      E             dE          RMSdq      gap      omega  full diag
   1    -30.0743607 -0.300744E+02  0.441E+00    2.85       0.0  T
   2    -29.0518286  0.102253E+01  0.671E+00    0.80       1.0  T
   3    -30.2213674 -0.116954E+01  0.272E+00    2.41       1.0  T
   4    -30.2541989 -0.328315E-01  0.168E+00    1.36       1.0  T
   5    -30.2696231 -0.154242E-01  0.113E+00    0.87       1.0  T
   6    -30.2786707 -0.904764E-02  0.701E-01    0.46       1.0  T
   7    -30.2828466 -0.417586E-02  0.405E-01    0.22       1.0  T
   8    -30.2840092 -0.116267E-02  0.241E-01    0.12       1.0  T
   9    -30.2823100  0.169920E-02  0.363E-01    0.27       1.0  T
  10    -30.2851281 -0.281805E-02  0.148E-01    0.18       1.0  T
  11    -30.2835882  0.153986E-02  0.274E-01    0.12       1.0  T
  12    -30.2856079 -0.201966E-02  0.541E-02    0.16       1.0  T
  13    -30.2856734 -0.655356E-04  0.245E-02    0.14       1.0  T
  14    -30.2856896 -0.162243E-04  0.208E-03    0.15      11.3  T
  15    -30.2856895  0.114514E-06  0.277E-03    0.15       8.5  T
  16    -30.2856897 -0.207597E-06  0.400E-04    0.15      58.9  T
  17    -30.2856897 -0.353389E-08  0.482E-05    0.15     489.1  T

   *** convergence criteria satisfied after 17 iterations ***

         #    Occupation            Energy/Eh            Energy/eV
      -------------------------------------------------------------
         1        2.0000           -0.5763286             -15.6827
       ...           ...                  ...                  ...
        22        2.0000           -0.2453628              -6.6767
        23        2.0000           -0.2373453              -6.4585
        24        2.0000           -0.2316202              -6.3027
        25        2.0000           -0.1931399              -5.2556
        26        2.0000           -0.1831829              -4.9847
        27        2.0000           -0.1681254              -4.5749
        28        1.8927           -0.0911951              -2.4815 (HOMO)
        29        0.1073           -0.0857410              -2.3331 (LUMO)
        30                         -0.0585937              -1.5944
        31                         -0.0350045              -0.9525
        32                          0.0204910               0.5576
        33                          0.0239332               0.6513
       ...                                ...                  ...
        56                          0.8863621              24.1191
      -------------------------------------------------------------
                  HL-Gap            0.0054541 Eh            0.1484 eV
             Fermi-level           -0.0884680 Eh           -2.4073 eV
 
 localization/xTB-IFF output generation
 averaging CT terms over            1  occ. levels
 averaging CT terms over            1  virt. levels
 dipole moment from electron density (au)
     X       Y       Z   
   1.6190  -0.0923  -0.0409  total (Debye):    4.123
cpu  time for init local    0.00 s
wall time for init local    0.00 s
 doing rotations ...
 initialization of trafo matrix to unity

 converged in     30 iterations, threshold :   0.99396573D-06
 doing transformations ...
 lmo centers(Z=2) and atoms on file <lmocent.coord>
 LMO Fii/eV  ncent    charge center   contributions...
    1 sigma -11.21   1.97   5.52815  -0.10673  -0.06586    1C :  0.52    2C :  0.49
    2 sigma -10.97   1.94   4.13042   1.96172   0.97903   11S :  0.59    2C :  0.41
    3 sigma -10.91   1.99  -7.98380   0.51777   0.28518    7N :  0.53   16H :  0.47
    4 sigma -10.89   1.99   6.90502  -1.81448   0.37596    1C :  0.51   13H :  0.50
    5 sigma -10.87   1.99   6.79759  -1.00959  -1.67952    1C :  0.51   14H :  0.50
    6 sigma -10.86   1.97   7.74308   0.18313  -0.07406    1C :  0.51   12H :  0.50
    7 sigma -10.76   1.90   2.23354   3.32787   1.67329   11S :  0.61   10C :  0.39
    8 sigma -10.24   1.86  -6.65382  -0.85019  -0.42365    7N :  0.62    8C :  0.39
    9 sigma -10.09   2.00   0.87520   0.04805   0.03885    3C :  0.51    4C :  0.49
   10 LP    -10.03   1.14   4.41943   2.85427   4.17919   11S :  0.93
   11 LP    -10.03   1.15   4.39964   5.06320  -0.22241   11S :  0.93
   12 sigma  -9.88   2.01  -0.30181   4.01704   2.02334   18H :  0.50   10C :  0.50
   13 pi     -9.73   1.87  -6.09058   0.35219   0.66779    7N :  0.66    6N :  0.31
   14 pi     -9.71   1.87  -6.09456   0.73526  -0.08219    7N :  0.66    6N :  0.31
   15 sigma  -9.65   2.02   1.87515  -1.82759  -0.90721    3C :  0.50   15H :  0.49
   16 pi     -9.30   2.11   3.07495  -0.27740   0.44961    2C :  0.50    3C :  0.48
   17 pi     -9.30   2.11   3.06940   0.19330  -0.48756    2C :  0.50    3C :  0.48
   18 sigma  -9.20   2.02  -1.41588   0.50897   0.27074    4C :  0.54    5C :  0.45
   19 sigma  -8.93   1.99  -7.05602  -3.11557  -1.58773   17H :  0.54    8C :  0.46
   20 pi     -8.79   2.17   0.26651   1.71429   1.45003   10C :  0.51    4C :  0.45
   21 pi     -8.79   2.17   0.26543   2.17506   0.52612   10C :  0.51    4C :  0.45
   22 delpi  -7.86   2.25  -3.79016   0.55793   0.80248    6N :  0.49    5C :  0.45
   23 delpi  -7.86   2.24  -3.79307   0.96871   0.00473    6N :  0.49    5C :  0.45
   24 sigma  -7.85   2.00  -3.13149  -0.98560  -0.49657    5C :  0.56    9C :  0.43
   25 pi     -6.89   2.19  -5.02167  -1.74775  -1.44330    8C :  0.56    9C :  0.38
   26 pi     -6.87   2.20  -5.02029  -2.19892  -0.56424    8C :  0.56    9C :  0.38
   27 LP     -6.39   1.03  -5.00542   3.10782   1.61329    6N :  0.99
   28 LP     -3.66   1.07  -2.45609  -3.55006  -1.81769    9C :  0.97
 starting deloc pi regularization ...
 thr    2.20000000000000      # pi deloc LMO           5
 files:
 coordprot.0/xtbscreen.xyz/xtblmoinfo/lmocent.coord
 with protonation site input, xtbdock and
 LMO center info written
 

 SCC (total)                   0 d,  0 h,  0 min,  0.077 sec
 SCC setup                      ...        0 min,  0.000 sec (  0.408%)
 Dispersion                     ...        0 min,  0.000 sec (  0.308%)
 classical contributions        ...        0 min,  0.000 sec (  0.085%)
 integral evaluation            ...        0 min,  0.005 sec (  6.084%)
 iterations                     ...        0 min,  0.020 sec ( 25.423%)
 molecular gradient             ...        0 min,  0.010 sec ( 12.397%)
 printout                       ...        0 min,  0.043 sec ( 55.224%)

         :::::::::::::::::::::::::::::::::::::::::::::::::::::
         ::                     SUMMARY                     ::
         :::::::::::::::::::::::::::::::::::::::::::::::::::::
         :: total energy             -29.864134406796 Eh    ::
         :: gradient norm              0.108310556571 Eh/a0 ::
         :: HOMO-LUMO gap              0.148413738535 eV    ::
         ::.................................................::
         :: SCC energy               -30.285689743707 Eh    ::
         :: -> isotropic ES            0.122114646893 Eh    ::
         :: -> anisotropic ES          0.006650034391 Eh    ::
         :: -> anisotropic XC          0.017885372747 Eh    ::
         :: -> dispersion             -0.018291775491 Eh    ::
         :: repulsion energy           0.421601292934 Eh    ::
         :: add. restraining           0.000000000000 Eh    ::
         :: total charge              -1.000000000000 e     ::
         :::::::::::::::::::::::::::::::::::::::::::::::::::::

      ----------------------------------------------------------- 
     |                   =====================                   |
     |                        A N C O P T                        |
     |                   =====================                   |
     |               Approximate Normal Coordinate               |
     |                Rational Function Optimizer                |
      ----------------------------------------------------------- 

          ...................................................
          :                      SETUP                      :
          :.................................................:
          :   optimization level            normal          :
          :   max. optcycles                   200          :
          :   ANC micro-cycles                  20          :
          :   degrees of freedom                48          :
          :.................................................:
          :   RF solver                   davidson          :
          :   write xtbopt.log                true          :
          :   linear?                        false          :
          :   energy convergence         0.5000000E-05 Eh   :
          :   grad. convergence          0.1000000E-02 Eh/α :
          :   maximium RF displ.         1.0000000          :
          :   Hlow (freq-cutoff)         0.1000000E-01      :
          :   Hmax (freq-cutoff)         5.0000000          :
          :   S6 in model hess.         20.0000000          :
          ...................................................

generating ANC from model Hessian ...
Using Lindh-Hessian (1995)
 Shifting diagonal of input Hessian by   7.996269413838120E-003
 Lowest  eigenvalues of input Hessian
    0.000000    0.000000    0.000000    0.000000    0.000000    0.000000
    0.010000    0.011741    0.012549    0.015657    0.019010    0.023756
    0.030633    0.042263    0.044046    0.049220    0.056203    0.060286
 Highest eigenvalues
    1.668401    1.769323    1.848741    1.881498    1.977425    2.029924
 

........................................................................
.............................. CYCLE    1 ..............................
........................................................................
   1    -30.2856897 -0.302857E+02  0.474E-05    0.15       0.0  T
   2    -30.2856897  0.604087E-08  0.455E-04    0.15      51.8  T
   3    -30.2856897 -0.609170E-08  0.165E-05    0.15    1427.2  T
     SCC iter.                  ...        0 min,  0.004 sec
     gradient                   ...        0 min,  0.009 sec
 * total energy  :   -29.8641344 Eh     change       -0.2114575E-10 Eh
   gradient norm :     0.1083104 Eh/α   predicted     0.0000000E+00 (-100.00%)
   displ. norm   :     0.2546671 α      lambda       -0.1646163E-01
   maximum displ.:     0.1248951 α      in ANC's #9, #13, #29, ...

........................................................................
.............................. CYCLE    2 ..............................
........................................................................
   1    -30.2867990 -0.302868E+02  0.467E-01    0.47       0.0  T
   2    -30.1226003  0.164199E+00  0.232E+00    0.02       1.0  T
   3    -30.2870254 -0.164425E+00  0.320E-01    0.43       1.0  T
   4    -30.2874217 -0.396298E-03  0.206E-01    0.38       1.0  T
   5    -30.2875659 -0.144238E-03  0.182E-01    0.36       1.0  T
   6    -30.2876615 -0.955946E-04  0.165E-01    0.35       1.0  T
   7    -30.2878062 -0.144672E-03  0.142E-01    0.32       1.0  T
   8    -30.2879179 -0.111777E-03  0.123E-01    0.30       1.0  T
   9    -30.2880040 -0.860160E-04  0.106E-01    0.29       1.0  T
  10    -30.2881416 -0.137643E-03  0.730E-02    0.26       1.0  T
  11    -30.2882473 -0.105657E-03  0.305E-02    0.24       1.0  T
  12    -30.2882692 -0.219165E-04  0.581E-03    0.23       4.1  T
  13    -30.2882699 -0.739591E-06  0.188E-03    0.22      12.6  T
  14    -30.2882700 -0.885615E-07  0.160E-04    0.22     147.1  T
  15    -30.2882700  0.664247E-09  0.184E-04    0.22     128.4  T
     SCC iter.                  ...        0 min,  0.017 sec
     gradient                   ...        0 min,  0.009 sec
 * total energy  :   -29.8758725 Eh     change       -0.1173811E-01 Eh
   gradient norm :     0.0482876 Eh/α   predicted    -0.8764630E-02 ( -25.33%)
   displ. norm   :     0.2452905 α      lambda       -0.6371632E-02
   maximum displ.:     0.1339960 α      in ANC's #9, #13, #21, ...

........................................................................
.............................. CYCLE    3 ..............................
........................................................................
   1    -30.2897676 -0.302898E+02  0.344E-01    0.50       0.0  T
   2    -30.2898389 -0.713057E-04  0.205E-01    0.46       1.0  T
   3    -30.2896995  0.139434E-03  0.115E-01    0.47       1.0  T
   4    -30.2898750 -0.175506E-03  0.309E-02    0.48       1.0  T
   5    -30.2898836 -0.864163E-05  0.188E-02    0.47       1.3  T
   6    -30.2898848 -0.117414E-05  0.810E-03    0.47       2.9  T
   7    -30.2898851 -0.288077E-06  0.389E-03    0.47       6.1  T
   8    -30.2898852 -0.103997E-06  0.139E-03    0.47      16.9  T
   9    -30.2898852 -0.710208E-08  0.680E-04    0.47      34.6  T
  10    -30.2898852 -0.365765E-08  0.231E-04    0.47     102.0  T
     SCC iter.                  ...        0 min,  0.011 sec
     gradient                   ...        0 min,  0.009 sec
 * total energy  :   -29.8793206 Eh     change       -0.3448118E-02 Eh
   gradient norm :     0.0122833 Eh/α   predicted    -0.3377502E-02 (  -2.05%)
   displ. norm   :     0.0656455 α      lambda       -0.2879275E-03
   maximum displ.:     0.0403751 α      in ANC's #7, #13, #3, ...

........................................................................
.............................. CYCLE    4 ..............................
........................................................................
   1    -30.2907916 -0.302908E+02  0.543E-02    0.48       0.0  T
   2    -30.2907934 -0.183753E-05  0.340E-02    0.48       1.0  T
   3    -30.2907921  0.133772E-05  0.213E-02    0.48       1.1  T
   4    -30.2907972 -0.514701E-05  0.374E-03    0.48       6.3  T
   5    -30.2907973 -0.803159E-07  0.210E-03    0.48      11.2  T
   6    -30.2907973 -0.333017E-07  0.744E-04    0.48      31.7  T
   7    -30.2907973 -0.211221E-08  0.368E-04    0.48      64.0  T
     SCC iter.                  ...        0 min,  0.008 sec
     gradient                   ...        0 min,  0.009 sec
 * total energy  :   -29.8795310 Eh     change       -0.2103700E-03 Eh
   gradient norm :     0.0066054 Eh/α   predicted    -0.1445856E-03 ( -31.27%)
   displ. norm   :     0.0733115 α      lambda       -0.1606602E-03
   maximum displ.:     0.0506420 α      in ANC's #7, #3, #13, ...

........................................................................
.............................. CYCLE    5 ..............................
........................................................................
   1    -30.2918432 -0.302918E+02  0.514E-02    0.48       0.0  T
   2    -30.2918443 -0.112764E-05  0.314E-02    0.46       1.0  T
   3    -30.2918423  0.202847E-05  0.212E-02    0.48       1.1  T
   4    -30.2918475 -0.519461E-05  0.388E-03    0.47       6.1  T
   5    -30.2918476 -0.776642E-07  0.250E-03    0.47       9.4  T
   6    -30.2918476 -0.569255E-07  0.710E-04    0.47      33.2  T
   7    -30.2918476 -0.501524E-08  0.361E-04    0.47      65.2  T
     SCC iter.                  ...        0 min,  0.008 sec
     gradient                   ...        0 min,  0.010 sec
 * total energy  :   -29.8796206 Eh     change       -0.8963276E-04 Eh
   gradient norm :     0.0026355 Eh/α   predicted    -0.8076219E-04 (  -9.90%)
   displ. norm   :     0.0228825 α      lambda       -0.1337531E-04
   maximum displ.:     0.0154676 α      in ANC's #3, #7, #4, ...

........................................................................
.............................. CYCLE    6 ..............................
........................................................................
   1    -30.2919930 -0.302920E+02  0.127E-02    0.47       0.0  T
   2    -30.2919931 -0.115975E-06  0.753E-03    0.47       3.1  T
   3    -30.2919929  0.245363E-06  0.473E-03    0.47       5.0  T
   4    -30.2919932 -0.338695E-06  0.131E-03    0.47      18.0  T
   5    -30.2919932 -0.114396E-07  0.629E-04    0.47      37.5  T
   6    -30.2919932 -0.277887E-08  0.240E-04    0.47      98.0  T
     SCC iter.                  ...        0 min,  0.007 sec
     gradient                   ...        0 min,  0.009 sec
 * total energy  :   -29.8796305 Eh     change       -0.9846190E-05 Eh
   gradient norm :     0.0016513 Eh/α   predicted    -0.6689101E-05 ( -32.06%)
   displ. norm   :     0.0394212 α      lambda       -0.9020958E-05
   maximum displ.:     0.0274872 α      in ANC's #3, #4, #5, ...

........................................................................
.............................. CYCLE    7 ..............................
........................................................................
   1    -30.2919908 -0.302920E+02  0.197E-02    0.47       0.0  T
   2    -30.2919914 -0.525820E-06  0.127E-02    0.47       1.9  T
   3    -30.2919914 -0.143819E-07  0.723E-03    0.47       3.3  T
   4    -30.2919919 -0.539320E-06  0.234E-03    0.47      10.1  T
   5    -30.2919919 -0.406831E-07  0.109E-03    0.47      21.7  T
   6    -30.2919920 -0.101834E-07  0.400E-04    0.47      58.9  T
   7    -30.2919920 -0.411529E-09  0.184E-04    0.47     128.1  T
     SCC iter.                  ...        0 min,  0.008 sec
     gradient                   ...        0 min,  0.009 sec
 * total energy  :   -29.8796358 Eh     change       -0.5269490E-05 Eh
   gradient norm :     0.0009008 Eh/α   predicted    -0.4514018E-05 ( -14.34%)
   displ. norm   :     0.0092867 α      lambda       -0.1716203E-05
   maximum displ.:     0.0052619 α      in ANC's #4, #7, #5, ...

........................................................................
.............................. CYCLE    8 ..............................
........................................................................
   1    -30.2919533 -0.302920E+02  0.526E-03    0.47       0.0  T
   2    -30.2919533 -0.141492E-07  0.306E-03    0.47       7.7  T
   3    -30.2919533  0.192927E-07  0.129E-03    0.47      18.2  T
   4    -30.2919533 -0.229341E-07  0.450E-04    0.47      52.4  T
   5    -30.2919533 -0.157473E-08  0.212E-04    0.47     111.4  T
     SCC iter.                  ...        0 min,  0.006 sec
     gradient                   ...        0 min,  0.009 sec
 * total energy  :   -29.8796379 Eh     change       -0.2096868E-05 Eh
   gradient norm :     0.0004888 Eh/α   predicted    -0.8567891E-06 ( -59.14%)
   displ. norm   :     0.0469182 α      lambda       -0.4565353E-05
   maximum displ.:     0.0319200 α      in ANC's #4, #5, #3, ...

   *** GEOMETRY OPTIMIZATION CONVERGED AFTER 8 ITERATIONS ***

------------------------------------------------------------------------
 total energy gain   :        -0.0155034 Eh       -9.7286 kcal/mol
 total RMSD          :         0.1416571 a0        0.0750 Å
 total power (kW/mol):        -5.0880357 (step) -212.2113 (real)
------------------------------------------------------------------------

 ANCopt (total)                0 d,  0 h,  0 min,  0.192 sec
 optimizer setup                ...        0 min,  0.001 sec (  0.267%)
 model hessian                  ...        0 min,  0.002 sec (  1.296%)
 ANC generation                 ...        0 min,  0.001 sec (  0.373%)
 coordinate transformation      ...        0 min,  0.000 sec (  0.060%)
 single point calculation       ...        0 min,  0.184 sec ( 95.685%)
 optimization log               ...        0 min,  0.002 sec (  1.057%)
 hessian update                 ...        0 min,  0.000 sec (  0.058%)
 rational function              ...        0 min,  0.002 sec (  0.864%)

================
 final structure:
================
18
 xtb: 6.4.1 (afa7bdf)
C         3.56272850621755   -0.33855579081316   -0.17555135423201
C         2.19570244048751    0.19989617035740    0.09295321523156
C         0.99595976327398   -0.35401659767315   -0.18535930635767
C        -0.12770516839727    0.43343235977597    0.21849735307800
C        -1.47863234106186    0.00142339302195    0.00198128604427
N        -2.51713935930872    0.76944999674376    0.39818846272272
N        -3.58710548144306    0.05361078317085    0.03591992114121
C        -3.21758022216101   -1.13103289400115   -0.57098762506395
C        -1.83912153617296   -1.24908543338246   -0.63616558034635
C         0.27317253517382    1.59676437484754    0.80966644668698
S         2.00208873201431    1.74788283788550    0.88261234786406
H         4.31766703337600    0.40747427305864    0.06508853069374
H         3.75254139044418   -1.22941485982840    0.42704630910106
H         3.66541434578808   -0.61590773765678   -1.22571411700942
H         0.85624274165184   -1.30466990316230   -0.67032255053323
H        -4.51265776742769    0.42001934342296    0.22631208215180
H        -4.01116043593531   -1.79214756315919   -0.90622486394459
H        -0.33041517651929    2.38487524739197    1.21206044277171
 
 Bond Distances (Angstroems)
 ---------------------------
C1-C2=1.4936         C1-H12=1.0883        C1-H13=1.0921        C1-H14=1.0910        C2-C1=1.4936         C2-C3=1.3504         
C2-S11=1.7485        C3-C2=1.3504         C3-C4=1.4303         C3-H15=1.0763        C4-C3=1.4303         C4-C5=1.4348         
C4-C10=1.3651        C5-C4=1.4348         C5-N6=1.3511         C5-C9=1.4495         N6-C5=1.3511         N6-N7=1.3373         
N7-N6=1.3373         N7-C8=1.3814         N7-H16=1.0135        C8-N7=1.3814         C8-C9=1.3850         C8-H17=1.0859        
C9-C5=1.4495         C9-C8=1.3850         C10-C4=1.3651        C10-S11=1.7370       C10-H18=1.0711       S11-C2=1.7485        
S11-C10=1.7370       H12-C1=1.0883        H13-C1=1.0921        H14-C1=1.0910        H15-C3=1.0763        H16-N7=1.0135        
H17-C8=1.0859        H18-C10=1.0711       
 C  H  Rav=1.0841 sigma=0.0078  Rmin=1.0711  Rmax=1.0921     6
 C  C  Rav=1.4155 sigma=0.0471  Rmin=1.3504  Rmax=1.4936     7
 N  H  Rav=1.0135 sigma=0.0000  Rmin=1.0135  Rmax=1.0135     1
 N  C  Rav=1.3662 sigma=0.0152  Rmin=1.3511  Rmax=1.3814     2
 N  N  Rav=1.3373 sigma=0.0000  Rmin=1.3373  Rmax=1.3373     1
 S  C  Rav=1.7428 sigma=0.0057  Rmin=1.7370  Rmax=1.7485     2
 
 selected bond angles (degree)
 --------------------
H12-C1-C2=110.37               H13-C1-C2=110.73               H13-C1-H12=108.46              H14-C1-C2=110.54               
H14-C1-H12=108.77              H14-C1-H13=107.90              C3-C2-C1=128.92                S11-C2-C1=120.11               
S11-C2-C3=110.97               C4-C3-C2=114.45                H15-C3-C2=124.78               H15-C3-C4=120.76               
C5-C4-C3=122.10                C10-C4-C3=111.15               C10-C4-C5=126.76               N6-C5-C4=120.55                
C9-C5-C4=124.08                C9-C5-N6=115.36                N7-N6-C5=103.37                C8-N7-N6=111.35                
H16-N7-N6=119.09               H16-N7-C8=129.56               C9-C8-N7=111.10                H17-C8-N7=117.53               
H17-C8-C9=131.37               C8-C9-C5= 98.82                S11-C10-C4=112.62              H18-C10-C4=128.62              
H18-C10-S11=118.76             
 
 selected dihedral angles (degree)
 ---------------------------------
C3-C2-C1-H12=173.28           C3-C2-C1-H13=293.38           C3-C2-C1-H14= 52.91           S11-C2-C1-H12=352.78          
S11-C2-C1-H13=112.89          S11-C2-C1-H14=232.41          C4-C3-C2-C1=179.59            C4-C3-C2-S11=  0.05           
H15-C3-C2-C1=359.49           H15-C3-C2-S11=179.95          C5-C4-C3-C2=179.97            C5-C4-C3-H15=  0.07           
C10-C4-C3-C2=  0.00           C10-C4-C3-H15=180.08          N6-C5-C4-C3=179.89            N6-C5-C4-C10=359.88           
C9-C5-C4-C3=359.90            C9-C5-C4-C10=179.89           N7-N6-C5-C4=180.01            N7-N6-C5-C9=  0.00            
C8-N7-N6-C5=  0.00            H16-N7-N6-C5=180.01           C9-C8-N7-N6=  0.00            C9-C8-N7-H16=179.99           
H17-C8-N7-N6=180.00           H17-C8-N7-H16=  0.00          C8-C9-C5-C4=179.99            C8-C9-C5-N6=  0.00            
C5-C9-C8-N7=  0.00            C5-C9-C8-H17=180.00           S11-C10-C4-C3=  0.00          S11-C10-C4-C5=179.99          
H18-C10-C4-C3=179.97          H18-C10-C4-C5=  0.00          
           -------------------------------------------------
          |                Final Singlepoint                |
           -------------------------------------------------

          ...................................................
          :                      SETUP                      :
          :.................................................:
          :  # basis functions                  57          :
          :  # atomic orbitals                  56          :
          :  # shells                           30          :
          :  # electrons                        56          :
          :  max. iterations                   250          :
          :  Hamiltonian                  GFN2-xTB          :
          :  restarted?                      false          :
          :  GBSA solvation                  false          :
          :  PC potential                    false          :
          :  electronic temp.          300.0000000     K    :
          :  accuracy                    1.0000000          :
          :  -> integral cutoff          0.2500000E+02      :
          :  -> integral neglect         0.1000000E-07      :
          :  -> SCF convergence          0.1000000E-05 Eh   :
          :  -> wf. convergence          0.1000000E-03 e    :
          :  Broyden damping             0.4000000          :
          ...................................................

 iter      E             dE          RMSdq      gap      omega  full diag
   1    -30.2919533 -0.302920E+02  0.758E-05    0.47       0.0  T
   2    -30.2919533 -0.752465E-11  0.648E-05    0.47     363.7  T
   3    -30.2919533 -0.409841E-10  0.332E-05    0.47     710.0  T

   *** convergence criteria satisfied after 3 iterations ***

         #    Occupation            Energy/Eh            Energy/eV
      -------------------------------------------------------------
         1        2.0000           -0.5801907             -15.7878
       ...           ...                  ...                  ...
        22        2.0000           -0.2501847              -6.8079
        23        2.0000           -0.2357670              -6.4155
        24        2.0000           -0.2272562              -6.1840
        25        2.0000           -0.1933361              -5.2609
        26        2.0000           -0.1818354              -4.9480
        27        2.0000           -0.1588369              -4.3222
        28        1.9998           -0.1059898              -2.8841 (HOMO)
        29        0.0002           -0.0887983              -2.4163 (LUMO)
        30                         -0.0632002              -1.7198
        31                         -0.0364055              -0.9906
        32                          0.0246125               0.6697
        33                          0.0258948               0.7046
       ...                                ...                  ...
        56                          0.8670646              23.5940
      -------------------------------------------------------------
                  HL-Gap            0.0171916 Eh            0.4678 eV
             Fermi-level           -0.0973941 Eh           -2.6502 eV
 
 localization/xTB-IFF output generation
 averaging CT terms over            1  occ. levels
 averaging CT terms over            1  virt. levels
 dipole moment from electron density (au)
     X       Y       Z   
   1.5700  -0.0086   0.0003  total (Debye):    3.991
cpu  time for init local    0.00 s
wall time for init local    0.00 s
 doing rotations ...
 initialization of trafo matrix to unity

 converged in     34 iterations, threshold :   0.99859542D-06
 doing transformations ...
 lmo centers(Z=2) and atoms on file <lmocent.coord>
 LMO Fii/eV  ncent    charge center   contributions...
    1 sigma -11.27   1.97   5.46695  -0.13088  -0.07890    1C :  0.52    2C :  0.49
    2 sigma -11.08   1.93   4.06886   1.88975   0.94715   11S :  0.59    2C :  0.41
    3 sigma -10.98   1.99  -7.89221   0.52201   0.28661    7N :  0.53   16H :  0.47
    4 sigma -10.96   1.99   6.93695  -1.74027   0.42579    1C :  0.51   13H :  0.50
    5 sigma -10.95   1.99   6.83381  -0.97502  -1.63787    1C :  0.51   14H :  0.50
    6 sigma -10.94   1.97   7.66616   0.29441  -0.03046    1C :  0.51   12H :  0.49
    7 sigma -10.81   1.89   2.23077   3.26001   1.64973   11S :  0.61   10C :  0.39
    8 sigma -10.40   1.86  -6.58040  -0.86355  -0.42622    7N :  0.63    8C :  0.38
    9 sigma -10.21   2.00   0.80632   0.02984   0.00838    3C :  0.51    4C :  0.48
   10 LP    -10.13   1.14   4.40080   4.97721  -0.24749   11S :  0.93
   11 LP    -10.12   1.15   4.40924   2.73978   4.14292   11S :  0.93
   12 sigma  -9.95   2.01  -0.23189   4.01981   2.04176   18H :  0.50   10C :  0.50
   13 pi     -9.72   1.88  -6.02605   0.69925  -0.09262    7N :  0.66    6N :  0.31
   14 sigma  -9.72   2.02   1.73468  -1.83640  -0.94624    3C :  0.51   15H :  0.48
   15 pi     -9.71   1.88  -6.02449   0.32197   0.64184    7N :  0.66    6N :  0.31
   16 pi     -9.50   2.09   2.98758   0.14242  -0.53388    2C :  0.50    3C :  0.48
   17 pi     -9.47   2.10   2.98830  -0.33800   0.40775    2C :  0.50    3C :  0.48
   18 sigma  -9.35   2.02  -1.43489   0.46318   0.23467    4C :  0.55    5C :  0.44
   19 pi     -8.84   2.17   0.21811   2.15204   0.50915   10C :  0.51    4C :  0.44
   20 pi     -8.84   2.17   0.21948   1.68294   1.43277   10C :  0.51    4C :  0.44
   21 sigma  -8.83   1.98  -7.12599  -3.01446  -1.52380   17H :  0.55    8C :  0.45
   22 delpi  -7.80   2.26  -3.71227   0.91955  -0.02276    6N :  0.49    5C :  0.45
   23 delpi  -7.78   2.27  -3.70874   0.51524   0.76726    6N :  0.49    5C :  0.45
   24 sigma  -7.60   2.01  -3.03290  -1.10301  -0.56100    5C :  0.56    9C :  0.42
   25 delpi  -6.64   2.23  -4.91798  -1.80266  -1.45804    8C :  0.56    9C :  0.36
   26 delpi  -6.64   2.23  -4.91520  -2.24538  -0.59205    8C :  0.56    9C :  0.36
   27 LP     -6.38   1.02  -4.86341   3.08664   1.58801    6N :  0.99
   28 LP     -4.01   1.05  -2.22455  -3.74231  -1.91341    9C :  0.97
 starting deloc pi regularization ...
 thr    2.20000000000000      # pi deloc LMO           5
 files:
 coordprot.0/xtbscreen.xyz/xtblmoinfo/lmocent.coord
 with protonation site input, xtbdock and
 LMO center info written
 

 SCC (total)                   0 d,  0 h,  0 min,  0.032 sec
 SCC setup                      ...        0 min,  0.000 sec (  0.475%)
 Dispersion                     ...        0 min,  0.000 sec (  0.354%)
 classical contributions        ...        0 min,  0.000 sec (  0.106%)
 integral evaluation            ...        0 min,  0.004 sec ( 13.758%)
 iterations                     ...        0 min,  0.004 sec ( 12.169%)
 molecular gradient             ...        0 min,  0.009 sec ( 29.477%)
 printout                       ...        0 min,  0.014 sec ( 43.518%)

         :::::::::::::::::::::::::::::::::::::::::::::::::::::
         ::                     SUMMARY                     ::
         :::::::::::::::::::::::::::::::::::::::::::::::::::::
         :: total energy             -29.879637850733 Eh    ::
         :: gradient norm              0.000490009184 Eh/a0 ::
         :: HOMO-LUMO gap              0.467806773906 eV    ::
         ::.................................................::
         :: SCC energy               -30.291953275085 Eh    ::
         :: -> isotropic ES            0.123002796032 Eh    ::
         :: -> anisotropic ES          0.005388930615 Eh    ::
         :: -> anisotropic XC          0.018170803764 Eh    ::
         :: -> dispersion             -0.018409965098 Eh    ::
         :: repulsion energy           0.412359875020 Eh    ::
         :: add. restraining           0.000000000000 Eh    ::
         :: total charge              -1.000000000000 e     ::
         :::::::::::::::::::::::::::::::::::::::::::::::::::::

           -------------------------------------------------
          |                Property Printout                |
           -------------------------------------------------

    * Orbital Energies and Occupations

         #    Occupation            Energy/Eh            Energy/eV
      -------------------------------------------------------------
         1        2.0000           -0.5801907             -15.7878
       ...           ...                  ...                  ...
        16        2.0000           -0.3266462              -8.8885
        17        2.0000           -0.3182474              -8.6600
        18        2.0000           -0.3160465              -8.6001
        19        2.0000           -0.3071430              -8.3578
        20        2.0000           -0.3000159              -8.1638
        21        2.0000           -0.2744559              -7.4683
        22        2.0000           -0.2501847              -6.8079
        23        2.0000           -0.2357670              -6.4155
        24        2.0000           -0.2272562              -6.1840
        25        2.0000           -0.1933361              -5.2609
        26        2.0000           -0.1818354              -4.9480
        27        2.0000           -0.1588369              -4.3222
        28        1.9998           -0.1059898              -2.8841 (HOMO)
        29        0.0002           -0.0887983              -2.4163 (LUMO)
        30                         -0.0632002              -1.7198
        31                         -0.0364055              -0.9906
        32                          0.0246125               0.6697
        33                          0.0258948               0.7046
        34                          0.0992654               2.7011
        35                          0.1338030               3.6410
        36                          0.1651817               4.4948
        37                          0.1779478               4.8422
        38                          0.1957594               5.3269
        39                          0.2512404               6.8366
       ...                                ...                  ...
        56                          0.8670646              23.5940
      -------------------------------------------------------------
                  HL-Gap            0.0171916 Eh            0.4678 eV
             Fermi-level           -0.0973941 Eh           -2.6502 eV

     #   Z          covCN         q      C6AA      α(0)
     1   6 C        3.773    -0.092    22.293     6.728
     2   6 C        2.972     0.019    27.582     8.615
     3   6 C        3.118    -0.058    29.260     8.860
     4   6 C        3.129    -0.003    27.904     8.649
     5   6 C        3.252     0.043    26.014     8.254
     6   7 N        1.952    -0.336    29.553     8.061
     7   7 N        2.951    -0.053    22.264     7.008
     8   6 C        3.067    -0.021    28.449     8.746
     9   6 C        2.002    -0.361    42.539    10.533
    10   6 C        2.941    -0.032    28.786     8.799
    11  16 S        2.292    -0.220   150.465    20.645
    12   1 H        0.925     0.031     2.570     2.507
    13   1 H        0.924     0.025     2.652     2.547
    14   1 H        0.924     0.026     2.643     2.542
    15   1 H        0.926     0.037     2.491     2.468
    16   1 H        0.860     0.074     2.060     2.248
    17   1 H        0.925    -0.087     5.129     3.542
    18   1 H        0.926     0.009     2.909     2.667

 Mol. C6AA /au·bohr⁶  :       5951.887662
 Mol. C8AA /au·bohr⁸  :     164315.147004
 Mol. α(0) /au        :        123.419579


Wiberg/Mayer (AO) data.
largest (>0.10) Wiberg bond orders for each atom

 ---------------------------------------------------------------------------
     #   Z sym  total        # sym  WBO       # sym  WBO       # sym  WBO
 ---------------------------------------------------------------------------
     1   6 C    3.998 --     2 C    1.025    12 H    0.987    14 H    0.978
                            13 H    0.975
     2   6 C    3.939 --     3 C    1.663    11 S    1.105     1 C    1.025
                            10 C    0.107
     3   6 C    3.987 --     2 C    1.663     4 C    1.185    15 H    0.959
     4   6 C    3.977 --    10 C    1.537     3 C    1.185     5 C    1.109
     5   6 C    3.935 --     6 N    1.370     9 C    1.224     4 C    1.109
                             7 N    0.104
     6   7 N    2.911 --     5 C    1.370     7 N    1.199     8 C    0.203
     7   7 N    3.536 --     6 N    1.199     8 C    1.157    16 H    0.955
                             5 C    0.104
     8   6 C    3.884 --     9 C    1.519     7 N    1.157    17 H    0.961
                             6 N    0.203
     9   6 C    2.999 --     8 C    1.519     5 C    1.224
    10   6 C    3.905 --     4 C    1.537    11 S    1.111    18 H    0.972
                             2 C    0.107
    11  16 S    2.509 --    10 C    1.111     2 C    1.105
    12   1 H    0.999 --     1 C    0.987
    13   1 H    0.999 --     1 C    0.975
    14   1 H    0.999 --     1 C    0.978
    15   1 H    0.999 --     3 C    0.959
    16   1 H    0.994 --     7 N    0.955
    17   1 H    0.992 --     8 C    0.961
    18   1 H    1.000 --    10 C    0.972
 ---------------------------------------------------------------------------

Topologies differ in total number of bonds
Writing topology from bond orders to xtbtopo.mol

molecular dipole:
                 x           y           z       tot (Debye)
 q only:        2.420      -0.081      -0.045
   full:        1.570      -0.009       0.000       3.989
molecular quadrupole (traceless):
                xx          xy          yy          xz          yz          zz
 q only:      -13.335      -9.764       3.285      -4.953      -4.622      10.050
  q+dip:       -4.106     -12.193      -2.301      -6.180      -5.961       6.407
   full:       -4.821     -12.285      -2.846      -6.221      -7.206       7.667

           -------------------------------------------------
          |                Geometry Summary                 |
           -------------------------------------------------

      molecular mass/u    :      163.2196663
   center of mass at/Å    :       -0.0806170       0.3414247       0.1725170
  moments of inertia/u·Å² :        0.1777965E+03   0.9344616E+03   0.1109117E+04
rotational constants/cm⁻¹ :        0.9481419E-01   0.1803994E-01   0.1519915E-01

 * 17 selected distances

     #   Z          #   Z                                           value/Å
     2   6 C        3   6 C                                       1.3504295
     3   6 C        4   6 C                                       1.4303143
     4   6 C        5   6 C                                       1.4347527
     5   6 C        6   7 N                                       1.3510521
     6   7 N        7   7 N                                       1.3373450
     7   7 N        8   6 C                                       1.3814001
     8   6 C        9   6 C                                       1.3850390
     4   6 C       10   6 C                                       1.3651100
     2   6 C       11  16 S                                       1.7485167 (max)
    10   6 C       11  16 S                                       1.7370403
     1   6 C       12   1 H                                       1.0883017
     1   6 C       13   1 H                                       1.0921459
     1   6 C       14   1 H                                       1.0910134
     3   6 C       15   1 H                                       1.0763140
     7   7 N       16   1 H                                       1.0134848 (min)
     8   6 C       17   1 H                                       1.0859218
    10   6 C       18   1 H                                       1.0711479

 * 6 distinct bonds (by element types)

   Z      Z             #   av. dist./Å        max./Å        min./Å
   1 H    6 C           6     1.0841408     1.0921459     1.0711479
   6 C    6 C           5     1.3931291     1.4347527     1.3504295
   1 H    7 N           1     1.0134848     1.0134848     1.0134848
   6 C    7 N           2     1.3662261     1.3814001     1.3510521
   7 N    7 N           1     1.3373450     1.3373450     1.3373450
   6 C   16 S           2     1.7427785     1.7485167     1.7370403


optimized geometry written to: xtbopt.xyz


           -------------------------------------------------
          | TOTAL ENERGY              -29.879637850733 Eh   |
          | GRADIENT NORM               0.000490009184 Eh/α |
          | HOMO-LUMO GAP               0.467806773906 eV   |
           -------------------------------------------------

------------------------------------------------------------------------
 * finished run on 2022/11/02 at 18:13:37.648     
------------------------------------------------------------------------
 total:
 * wall-time:     0 d,  0 h,  0 min,  0.386 sec
 *  cpu-time:     0 d,  0 h,  0 min,  0.300 sec
 * ratio c/w:     0.779 speedup
 SCF:
 * wall-time:     0 d,  0 h,  0 min,  0.078 sec
 *  cpu-time:     0 d,  0 h,  0 min,  0.047 sec
 * ratio c/w:     0.605 speedup
 ANC optimizer:
 * wall-time:     0 d,  0 h,  0 min,  0.228 sec
 *  cpu-time:     0 d,  0 h,  0 min,  0.222 sec
 * ratio c/w:     0.974 speedup

