18
 energy: -29.879637850733 gnorm: 0.000490009184 xtb: 6.4.1 (afa7bdf)
C         3.56272850621755   -0.33855579081316   -0.17555135423201
C         2.19570244048751    0.19989617035740    0.09295321523156
C         0.99595976327398   -0.35401659767315   -0.18535930635767
C        -0.12770516839727    0.43343235977597    0.21849735307800
C        -1.47863234106186    0.00142339302195    0.00198128604427
N        -2.51713935930872    0.76944999674376    0.39818846272272
N        -3.58710548144306    0.05361078317085    0.03591992114121
C        -3.21758022216101   -1.13103289400115   -0.57098762506395
C        -1.83912153617296   -1.24908543338246   -0.63616558034635
C         0.27317253517382    1.59676437484754    0.80966644668698
S         2.00208873201431    1.74788283788550    0.88261234786406
H         4.31766703337600    0.40747427305864    0.06508853069374
H         3.75254139044418   -1.22941485982840    0.42704630910106
H         3.66541434578808   -0.61590773765678   -1.22571411700942
H         0.85624274165184   -1.30466990316230   -0.67032255053323
H        -4.51265776742769    0.42001934342296    0.22631208215180
H        -4.01116043593531   -1.79214756315919   -0.90622486394459
H        -0.33041517651929    2.38487524739197    1.21206044277171
