      -----------------------------------------------------------      
     |                   =====================                   |     
     |                           x T B                           |     
     |                   =====================                   |     
     |                         S. Grimme                         |     
     |          Mulliken Center for Theoretical Chemistry        |     
     |                    University of Bonn                     |     
      -----------------------------------------------------------      

   * xtb version 6.4.1 (afa7bdf) compiled by 'ehlert@majestix' on 2021-06-10

   xtb is free software: you can redistribute it and/or modify it under
   the terms of the GNU Lesser General Public License as published by
   the Free Software Foundation, either version 3 of the License, or
   (at your option) any later version.
   
   xtb is distributed in the hope that it will be useful,
   but WITHOUT ANY WARRANTY; without even the implied warranty of
   MERCHANTABILITY or FITNESS FOR A PARTICULAR PURPOSE.  See the
   GNU Lesser General Public License for more details.
   
   Cite this work as:
   * C. Bannwarth, E. Caldeweyher, S. Ehlert, A. Hansen, P. Pracht,
     J. Seibert, S. Spicher, S. Grimme, WIREs Comput. Mol. Sci., 2020, 11,
     e01493. DOI: 10.1002/wcms.1493
   
   for GFN2-xTB:
   * C. Bannwarth, S. Ehlert and S. Grimme., J. Chem. Theory Comput., 2019,
     15, 1652-1671. DOI: 10.1021/acs.jctc.8b01176
   for GFN1-xTB:
   * S. Grimme, C. Bannwarth, P. Shushkov, J. Chem. Theory Comput., 2017,
     13, 1989-2009. DOI: 10.1021/acs.jctc.7b00118
   for GFN0-xTB:
   * P. Pracht, E. Caldeweyher, S. Ehlert, S. Grimme, ChemRxiv, 2019, preprint.
     DOI: 10.26434/chemrxiv.8326202.v1
   for GFN-FF:
   * S. Spicher and S. Grimme, Angew. Chem. Int. Ed., 2020, 59, 15665-15673.
     DOI: 10.1002/anie.202004239
   
   for DFT-D4:
   * E. Caldeweyher, C. Bannwarth and S. Grimme, J. Chem. Phys., 2017,
     147, 034112. DOI: 10.1063/1.4993215
   * E. Caldeweyher, S. Ehlert, A. Hansen, H. Neugebauer, S. Spicher,
     C. Bannwarth and S. Grimme, J. Chem. Phys., 2019, 150, 154122.
     DOI: 10.1063/1.5090222
   * E. Caldeweyher, J.-M. Mewes, S. Ehlert and S. Grimme, Phys. Chem. Chem. Phys.
     2020, 22, 8499-8512. DOI: 10.1039/D0CP00502A
   
   for sTDA-xTB:
   * S. Grimme and C. Bannwarth, J. Chem. Phys., 2016, 145, 054103.
     DOI: 10.1063/1.4959605
   
   in the mass-spec context:
   * V. Asgeirsson, C. Bauer and S. Grimme, Chem. Sci., 2017, 8, 4879.
     DOI: 10.1039/c7sc00601b
   * J. Koopman and S. Grimme, ACS Omega 2019, 4, 12, 15120-15133.
     DOI: 10.1021/acsomega.9b02011
   
   for metadynamics refer to:
   * S. Grimme, J. Chem. Theory Comput., 2019, 155, 2847-2862
     DOI: 10.1021/acs.jctc.9b00143
   
   for SPH calculations refer to:
   * S. Spicher and S. Grimme, J. Chem. Theory Comput., 2021, 17, 1701-1714
     DOI: 10.1021/acs.jctc.0c01306
   
   with help from (in alphabetical order)
   P. Atkinson, C. Bannwarth, F. Bohle, G. Brandenburg, E. Caldeweyher
   M. Checinski, S. Dohm, S. Ehlert, S. Ehrlich, I. Gerasimov, J. Koopman
   C. Lavigne, S. Lehtola, F. März, M. Müller, F. Musil, H. Neugebauer
   J. Pisarek, C. Plett, P. Pracht, J. Seibert, P. Shushkov, S. Spicher
   M. Stahn, M. Steiner, T. Strunk, J. Stückrath, T. Rose, and J. Unsleber
   
 * started run on 2022/11/02 at 18:13:33.964     

           -------------------------------------------------
          |                Calculation Setup                |
           -------------------------------------------------

          program call               : /lustre/hpc/kemi/borup/pKalculator/dep/xtb-6.4.1/bin/xtb --gfn 2 /lustre/hpc/kemi/borup/pKalculator/calc/test/conf02/test_conf02_gfn2.xyz --opt --lmo --chrg 0 --uhf 0
          hostname                   : fend01.cluster
          coordinate file            : /lustre/hpc/kemi/borup/pKalculator/calc/test/conf02/test_conf02_gfn2.xyz
          omp threads                :                     1
          number of atoms            :                    19
          number of electrons        :                    56
          charge                     :                     0
          spin                       :                   0.0
          first test random number   :      0.59473501590661

   ID    Z sym.   atoms
    1    6 C      1-5, 7, 8, 11
    2   16 S      6
    3    7 N      9, 10
    4    1 H      12-19

           -------------------------------------------------
          |                 G F N 2 - x T B                 |
           -------------------------------------------------

        Reference                      10.1021/acs.jctc.8b01176
      * Hamiltonian:
        H0-scaling (s, p, d)           1.850000    2.230000    2.230000
        zeta-weighting                 0.500000
      * Dispersion:
        s8                             2.700000
        a1                             0.520000
        a2                             5.000000
        s9                             5.000000
      * Repulsion:
        kExp                           1.500000    1.000000
        rExp                           1.000000
      * Coulomb:
        alpha                          2.000000
        third order                    shell-resolved
        anisotropic                    true
        a3                             3.000000
        a5                             4.000000
        cn-shift                       1.200000
        cn-exp                         4.000000
        max-rad                        5.000000


          ...................................................
          :                      SETUP                      :
          :.................................................:
          :  # basis functions                  58          :
          :  # atomic orbitals                  57          :
          :  # shells                           31          :
          :  # electrons                        56          :
          :  max. iterations                   250          :
          :  Hamiltonian                  GFN2-xTB          :
          :  restarted?                      false          :
          :  GBSA solvation                  false          :
          :  PC potential                    false          :
          :  electronic temp.          300.0000000     K    :
          :  accuracy                    1.0000000          :
          :  -> integral cutoff          0.2500000E+02      :
          :  -> integral neglect         0.1000000E-07      :
          :  -> SCF convergence          0.1000000E-05 Eh   :
          :  -> wf. convergence          0.1000000E-03 e    :
          :  Broyden damping             0.4000000          :
          ...................................................

 iter      E             dE          RMSdq      gap      omega  full diag
   1    -30.6375921 -0.306376E+02  0.370E+00    3.41       0.0  T
   2    -30.6905586 -0.529665E-01  0.270E+00    3.36       1.0  T
   3    -30.7099564 -0.193978E-01  0.139E+00    3.47       1.0  T
   4    -30.7133641 -0.340763E-02  0.605E-01    3.43       1.0  T
   5    -30.7170931 -0.372905E-02  0.191E-01    3.43       1.0  T
   6    -30.7173347 -0.241605E-03  0.805E-02    3.44       1.0  T
   7    -30.7173622 -0.275192E-04  0.369E-02    3.44       1.0  T
   8    -30.7173762 -0.139244E-04  0.159E-02    3.44       1.4  T
   9    -30.7173770 -0.843827E-06  0.603E-03    3.44       3.8  T
  10    -30.7173771 -0.114836E-06  0.255E-03    3.44       9.0  T
  11    -30.7173772 -0.434019E-07  0.991E-04    3.44      23.2  T
  12    -30.7173772 -0.805311E-09  0.438E-04    3.44      52.4  T

   *** convergence criteria satisfied after 12 iterations ***

         #    Occupation            Energy/Eh            Energy/eV
      -------------------------------------------------------------
         1        2.0000           -0.7185198             -19.5519
       ...           ...                  ...                  ...
        22        2.0000           -0.4416325             -12.0174
        23        2.0000           -0.4342082             -11.8154
        24        2.0000           -0.4151544             -11.2969
        25        2.0000           -0.4047242             -11.0131
        26        2.0000           -0.3902553             -10.6194
        27        2.0000           -0.3812983             -10.3757
        28        2.0000           -0.3663657              -9.9693 (HOMO)
        29                         -0.2398658              -6.5271 (LUMO)
        30                         -0.2112003              -5.7471
        31                         -0.1915425              -5.2121
        32                         -0.1818087              -4.9473
        33                         -0.1149892              -3.1290
       ...                                ...                  ...
        57                          0.7194388              19.5769
      -------------------------------------------------------------
                  HL-Gap            0.1264998 Eh            3.4422 eV
             Fermi-level           -0.3031158 Eh           -8.2482 eV
 
 localization/xTB-IFF output generation
 averaging CT terms over            1  occ. levels
 averaging CT terms over            1  virt. levels
 dipole moment from electron density (au)
     X       Y       Z   
  -0.6838   0.4628  -0.8334  total (Debye):    2.982
cpu  time for init local    0.01 s
wall time for init local    0.01 s
 doing rotations ...
 initialization of trafo matrix to unity

 converged in     39 iterations, threshold :   0.99655081D-06
 doing transformations ...
 lmo centers(Z=2) and atoms on file <lmocent.coord>
 LMO Fii/eV  ncent    charge center   contributions...
    1 sigma -17.11   1.96  -5.70216  -0.06608   1.17076   10N :  0.55    9N :  0.45
    2 sigma -16.37   1.92  -6.47627   0.78387  -0.51500   10N :  0.58   11C :  0.43
    3 sigma -15.86   1.95  -7.72561   0.19126   0.98513   10N :  0.58   18H :  0.43
    4 sigma -14.85   1.94   4.21075  -1.30155   2.00063    6S :  0.58    5C :  0.42
    5 sigma -14.81   1.94   2.27191  -1.81167   3.43426    6S :  0.58    7C :  0.42
    6 sigma -14.80   1.97   5.61317  -0.43924  -0.07660    5C :  0.51    8C :  0.50
    7 sigma -14.51   1.99  -2.98450   0.64184  -0.84598    1C :  0.51    2C :  0.49
    8 sigma -14.49   2.00   0.99006  -0.17441   0.19717    3C :  0.50    4C :  0.50
    9 sigma -14.47   2.02  -1.34233  -0.21341   0.69182    2C :  0.50    3C :  0.49
   10 sigma -14.43   2.01  -6.94674   1.81877  -2.65488   11C :  0.51   19H :  0.49
   11 sigma -13.94   2.01   7.33446   0.93167  -0.31679    8C :  0.52   15H :  0.48
   12 sigma -13.92   1.99   6.74778  -0.28904  -2.01179    8C :  0.52   17H :  0.48
   13 sigma -13.90   2.00  -0.18640  -1.96771   4.20461    7C :  0.52   14H :  0.48
   14 sigma -13.87   1.98   7.69313  -1.20842  -0.28257    8C :  0.52   16H :  0.48
   15 LP    -13.82   1.18   4.08751  -4.40544   2.92886    6S :  0.92
   16 LP    -13.81   1.19   4.45163  -0.05227   4.97391    6S :  0.92
   17 sigma -13.78   2.01  -2.73046   1.60175  -2.95763    1C :  0.51   12H :  0.49
   18 sigma -13.78   2.01   2.01405   0.65255  -1.73339    4C :  0.51   13H :  0.49
   19 pi    -13.76   2.16  -3.75539  -0.60638   0.87577    9N :  0.52    2C :  0.44
   20 pi    -13.75   2.16  -3.68390   0.23050   1.26540    9N :  0.52    2C :  0.44
   21 pi    -13.44   2.19  -4.72155   0.75731  -1.97545    1C :  0.49   11C :  0.47
   22 pi    -13.44   2.19  -4.64441   1.66762  -1.55222    1C :  0.49   11C :  0.47
   23 pi    -13.30   2.13   3.11225  -0.74980  -0.19178    4C :  0.49    5C :  0.48
   24 pi    -13.29   2.13   3.19221   0.18729   0.25070    4C :  0.49    5C :  0.48
   25 pi    -13.24   2.18   0.36944  -0.53976   2.28011    3C :  0.48    7C :  0.48
   26 pi    -13.24   2.18   0.29283  -1.46105   1.84330    3C :  0.48    7C :  0.48
   27 pi    -13.21   1.60  -6.23820   0.33145   0.41040   10N :  0.78   11C :  0.09    9N :  0.09
   28 LP    -11.67   1.02  -4.78555  -1.22279   3.48920    9N :  0.99
 starting deloc pi regularization ...
 thr    2.20000000000000      # pi deloc LMO           5
 files:
 coordprot.0/xtbscreen.xyz/xtblmoinfo/lmocent.coord
 with protonation site input, xtbdock and
 LMO center info written
 

 SCC (total)                   0 d,  0 h,  0 min,  0.062 sec
 SCC setup                      ...        0 min,  0.000 sec (  0.621%)
 Dispersion                     ...        0 min,  0.000 sec (  0.594%)
 classical contributions        ...        0 min,  0.000 sec (  0.166%)
 integral evaluation            ...        0 min,  0.008 sec ( 13.395%)
 iterations                     ...        0 min,  0.023 sec ( 36.617%)
 molecular gradient             ...        0 min,  0.010 sec ( 16.273%)
 printout                       ...        0 min,  0.020 sec ( 32.228%)

         :::::::::::::::::::::::::::::::::::::::::::::::::::::
         ::                     SUMMARY                     ::
         :::::::::::::::::::::::::::::::::::::::::::::::::::::
         :: total energy             -30.272136440648 Eh    ::
         :: gradient norm              0.052065812911 Eh/a0 ::
         :: HOMO-LUMO gap              3.442234949801 eV    ::
         ::.................................................::
         :: SCC energy               -30.717377160682 Eh    ::
         :: -> isotropic ES            0.010644940839 Eh    ::
         :: -> anisotropic ES          0.003870082729 Eh    ::
         :: -> anisotropic XC          0.020534018573 Eh    ::
         :: -> dispersion             -0.017825572886 Eh    ::
         :: repulsion energy           0.445274671777 Eh    ::
         :: add. restraining           0.000000000000 Eh    ::
         :: total charge               0.000000000000 e     ::
         :::::::::::::::::::::::::::::::::::::::::::::::::::::

      ----------------------------------------------------------- 
     |                   =====================                   |
     |                        A N C O P T                        |
     |                   =====================                   |
     |               Approximate Normal Coordinate               |
     |                Rational Function Optimizer                |
      ----------------------------------------------------------- 

          ...................................................
          :                      SETUP                      :
          :.................................................:
          :   optimization level            normal          :
          :   max. optcycles                   200          :
          :   ANC micro-cycles                  20          :
          :   degrees of freedom                51          :
          :.................................................:
          :   RF solver                   davidson          :
          :   write xtbopt.log                true          :
          :   linear?                        false          :
          :   energy convergence         0.5000000E-05 Eh   :
          :   grad. convergence          0.1000000E-02 Eh/α :
          :   maximium RF displ.         1.0000000          :
          :   Hlow (freq-cutoff)         0.1000000E-01      :
          :   Hmax (freq-cutoff)         5.0000000          :
          :   S6 in model hess.         20.0000000          :
          ...................................................

generating ANC from model Hessian ...
Using Lindh-Hessian (1995)
 Shifting diagonal of input Hessian by   8.233835331502173E-003
 Lowest  eigenvalues of input Hessian
    0.000000    0.000000    0.000000    0.000000    0.000000    0.000000
    0.010000    0.011573    0.012598    0.016177    0.018642    0.023859
    0.031532    0.034033    0.043985    0.044835    0.053321    0.055296
 Highest eigenvalues
    1.719526    1.838957    1.930142    1.966361    2.028376    2.109875
 

........................................................................
.............................. CYCLE    1 ..............................
........................................................................
   1    -30.7173772 -0.307174E+02  0.164E-04    3.44       0.0  T
   2    -30.7173772 -0.545164E-10  0.979E-05    3.44     234.4  T
   3    -30.7173772 -0.503064E-11  0.659E-05    3.44     348.0  T
     SCC iter.                  ...        0 min,  0.005 sec
     gradient                   ...        0 min,  0.010 sec
 * total energy  :   -30.2721364 Eh     change       -0.1213525E-08 Eh
   gradient norm :     0.0520686 Eh/α   predicted     0.0000000E+00 (-100.00%)
   displ. norm   :     0.1733782 α      lambda       -0.4572860E-02
   maximum displ.:     0.0825679 α      in ANC's #12, #18, #9, ...

........................................................................
.............................. CYCLE    2 ..............................
........................................................................
   1    -30.7279285 -0.307279E+02  0.211E-01    3.40       0.0  T
   2    -30.7279839 -0.553159E-04  0.126E-01    3.40       1.0  T
   3    -30.7279708  0.130928E-04  0.655E-02    3.40       1.0  T
   4    -30.7280052 -0.343983E-04  0.192E-02    3.40       1.2  T
   5    -30.7280078 -0.259980E-05  0.882E-03    3.40       2.6  T
   6    -30.7280083 -0.560340E-06  0.387E-03    3.40       5.9  T
   7    -30.7280084 -0.820771E-07  0.151E-03    3.40      15.2  T
   8    -30.7280084 -0.962389E-08  0.856E-04    3.40      26.8  T
   9    -30.7280084 -0.384475E-08  0.176E-04    3.40     130.4  T
     SCC iter.                  ...        0 min,  0.011 sec
     gradient                   ...        0 min,  0.010 sec
 * total energy  :   -30.2752582 Eh     change       -0.3121791E-02 Eh
   gradient norm :     0.0198789 Eh/α   predicted    -0.2355339E-02 ( -24.55%)
   displ. norm   :     0.1555325 α      lambda       -0.1274370E-02
   maximum displ.:     0.0974848 α      in ANC's #3, #12, #18, ...

........................................................................
.............................. CYCLE    3 ..............................
........................................................................
   1    -30.7330568 -0.307331E+02  0.142E-01    3.38       0.0  T
   2    -30.7330789 -0.221561E-04  0.844E-02    3.38       1.0  T
   3    -30.7330732  0.574552E-05  0.466E-02    3.38       1.0  T
   4    -30.7330883 -0.151180E-04  0.110E-02    3.38       2.1  T
   5    -30.7330893 -0.102311E-05  0.596E-03    3.38       3.8  T
   6    -30.7330897 -0.381129E-06  0.160E-03    3.38      14.3  T
   7    -30.7330897 -0.569549E-08  0.495E-04    3.38      46.4  T
   8    -30.7330897 -0.840654E-09  0.264E-04    3.38      86.9  T
     SCC iter.                  ...        0 min,  0.010 sec
     gradient                   ...        0 min,  0.010 sec
 * total energy  :   -30.2759803 Eh     change       -0.7220563E-03 Eh
   gradient norm :     0.0068917 Eh/α   predicted    -0.6526685E-03 (  -9.61%)
   displ. norm   :     0.0854079 α      lambda       -0.1525566E-03
   maximum displ.:     0.0751873 α      in ANC's #3, #12, #7, ...

........................................................................
.............................. CYCLE    4 ..............................
........................................................................
   1    -30.7329560 -0.307330E+02  0.452E-02    3.38       0.0  T
   2    -30.7329568 -0.786995E-06  0.267E-02    3.38       1.0  T
   3    -30.7329549  0.188647E-05  0.138E-02    3.38       1.7  T
   4    -30.7329573 -0.240086E-05  0.272E-03    3.38       8.4  T
   5    -30.7329574 -0.650682E-07  0.144E-03    3.38      15.9  T
   6    -30.7329574 -0.120684E-07  0.483E-04    3.38      47.5  T
   7    -30.7329574 -0.187946E-08  0.255E-04    3.38      89.8  T
     SCC iter.                  ...        0 min,  0.009 sec
     gradient                   ...        0 min,  0.010 sec
 * total energy  :   -30.2760943 Eh     change       -0.1140513E-03 Eh
   gradient norm :     0.0046917 Eh/α   predicted    -0.7683605E-04 ( -32.63%)
   displ. norm   :     0.1062837 α      lambda       -0.1078100E-03
   maximum displ.:     0.0974576 α      in ANC's #3, #4, #12, ...

........................................................................
.............................. CYCLE    5 ..............................
........................................................................
   1    -30.7323271 -0.307323E+02  0.435E-02    3.39       0.0  T
   2    -30.7323281 -0.958124E-06  0.252E-02    3.39       1.0  T
   3    -30.7323268  0.127943E-05  0.109E-02    3.39       2.1  T
   4    -30.7323284 -0.161612E-05  0.296E-03    3.39       7.7  T
   5    -30.7323285 -0.641446E-07  0.140E-03    3.39      16.4  T
   6    -30.7323285 -0.101983E-07  0.603E-04    3.39      38.0  T
   7    -30.7323285 -0.235354E-08  0.291E-04    3.39      78.9  T
     SCC iter.                  ...        0 min,  0.009 sec
     gradient                   ...        0 min,  0.010 sec
 * total energy  :   -30.2761619 Eh     change       -0.6753726E-04 Eh
   gradient norm :     0.0021409 Eh/α   predicted    -0.5451732E-04 ( -19.28%)
   displ. norm   :     0.0488215 α      lambda       -0.2171773E-04
   maximum displ.:     0.0430533 α      in ANC's #3, #4, #5, ...

........................................................................
.............................. CYCLE    6 ..............................
........................................................................
   1    -30.7322759 -0.307323E+02  0.153E-02    3.39       0.0  T
   2    -30.7322760 -0.119034E-06  0.861E-03    3.39       2.7  T
   3    -30.7322760  0.634528E-07  0.309E-03    3.39       7.4  T
   4    -30.7322761 -0.962164E-07  0.827E-04    3.39      27.7  T
   5    -30.7322761 -0.333431E-08  0.313E-04    3.39      73.4  T
     SCC iter.                  ...        0 min,  0.007 sec
     gradient                   ...        0 min,  0.010 sec
 * total energy  :   -30.2761794 Eh     change       -0.1747806E-04 Eh
   gradient norm :     0.0015720 Eh/α   predicted    -0.1089010E-04 ( -37.69%)
   displ. norm   :     0.0935666 α      lambda       -0.2357977E-04
   maximum displ.:     0.0722731 α      in ANC's #3, #4, #5, ...

........................................................................
.............................. CYCLE    7 ..............................
........................................................................
   1    -30.7323511 -0.307324E+02  0.293E-02    3.38       0.0  T
   2    -30.7323515 -0.401102E-06  0.169E-02    3.38       1.4  T
   3    -30.7323512  0.281345E-06  0.618E-03    3.38       3.7  T
   4    -30.7323516 -0.393872E-06  0.159E-03    3.39      14.4  T
   5    -30.7323516 -0.141390E-07  0.784E-04    3.38      29.3  T
   6    -30.7323516 -0.440311E-08  0.320E-04    3.39      71.7  T
     SCC iter.                  ...        0 min,  0.008 sec
     gradient                   ...        0 min,  0.010 sec
 * total energy  :   -30.2762033 Eh     change       -0.2390245E-04 Eh
   gradient norm :     0.0019651 Eh/α   predicted    -0.1183682E-04 ( -50.48%)
   displ. norm   :     0.0900712 α      lambda       -0.1383065E-04
   maximum displ.:     0.0596570 α      in ANC's #3, #4, #5, ...

........................................................................
.............................. CYCLE    8 ..............................
........................................................................
   1    -30.7322426 -0.307322E+02  0.260E-02    3.38       0.0  T
   2    -30.7322429 -0.272670E-06  0.151E-02    3.38       1.5  T
   3    -30.7322427  0.167073E-06  0.421E-03    3.38       5.4  T
   4    -30.7322430 -0.202654E-06  0.164E-03    3.38      14.0  T
   5    -30.7322430 -0.262014E-07  0.671E-04    3.38      34.2  T
   6    -30.7322430 -0.281040E-08  0.241E-04    3.38      95.0  T
     SCC iter.                  ...        0 min,  0.008 sec
     gradient                   ...        0 min,  0.010 sec
 * total energy  :   -30.2762183 Eh     change       -0.1504828E-04 Eh
   gradient norm :     0.0017502 Eh/α   predicted    -0.6945765E-05 ( -53.84%)
   displ. norm   :     0.1017386 α      lambda       -0.1320893E-04
   maximum displ.:     0.0572192 α      in ANC's #4, #3, #5, ...

........................................................................
.............................. CYCLE    9 ..............................
........................................................................
   1    -30.7322289 -0.307322E+02  0.293E-02    3.38       0.0  T
   2    -30.7322292 -0.291842E-06  0.170E-02    3.38       1.3  T
   3    -30.7322287  0.496683E-06  0.641E-03    3.38       3.6  T
   4    -30.7322293 -0.570581E-06  0.194E-03    3.38      11.9  T
   5    -30.7322293 -0.360773E-07  0.699E-04    3.38      32.8  T
   6    -30.7322293 -0.211758E-08  0.309E-04    3.38      74.3  T
     SCC iter.                  ...        0 min,  0.008 sec
     gradient                   ...        0 min,  0.010 sec
 * total energy  :   -30.2762326 Eh     change       -0.1425951E-04 Eh
   gradient norm :     0.0013195 Eh/α   predicted    -0.6636274E-05 ( -53.46%)
   displ. norm   :     0.1104798 α      lambda       -0.1365940E-04
   maximum displ.:     0.0686478 α      in ANC's #4, #5, #6, ...

........................................................................
.............................. CYCLE   10 ..............................
........................................................................
   1    -30.7322185 -0.307322E+02  0.310E-02    3.38       0.0  T
   2    -30.7322187 -0.195911E-06  0.182E-02    3.38       1.3  T
   3    -30.7322180  0.644292E-06  0.700E-03    3.38       3.3  T
   4    -30.7322188 -0.720607E-06  0.173E-03    3.38      13.2  T
   5    -30.7322188 -0.277655E-07  0.607E-04    3.38      37.8  T
   6    -30.7322188 -0.161404E-08  0.295E-04    3.38      77.7  T
     SCC iter.                  ...        0 min,  0.008 sec
     gradient                   ...        0 min,  0.010 sec
 * total energy  :   -30.2762482 Eh     change       -0.1562689E-04 Eh
   gradient norm :     0.0016648 Eh/α   predicted    -0.6868612E-05 ( -56.05%)
   displ. norm   :     0.1686005 α      lambda       -0.2302621E-04
   maximum displ.:     0.1032878 α      in ANC's #4, #5, #6, ...

........................................................................
.............................. CYCLE   11 ..............................
........................................................................
   1    -30.7320953 -0.307321E+02  0.453E-02    3.38       0.0  T
   2    -30.7320955 -0.231865E-06  0.267E-02    3.37       1.0  T
   3    -30.7320946  0.850647E-06  0.804E-03    3.38       2.9  T
   4    -30.7320956 -0.940865E-06  0.229E-03    3.37      10.0  T
   5    -30.7320956 -0.362992E-07  0.829E-04    3.37      27.7  T
   6    -30.7320956 -0.334536E-08  0.359E-04    3.37      63.9  T
     SCC iter.                  ...        0 min,  0.008 sec
     gradient                   ...        0 min,  0.010 sec
 * total energy  :   -30.2762725 Eh     change       -0.2432159E-04 Eh
   gradient norm :     0.0031526 Eh/α   predicted    -0.1166432E-04 ( -52.04%)
   displ. norm   :     0.1078735 α      lambda       -0.2946558E-04
   maximum displ.:     0.0634351 α      in ANC's #4, #5, #6, ...

........................................................................
.............................. CYCLE   12 ..............................
........................................................................
   1    -30.7323396 -0.307323E+02  0.285E-02    3.38       0.0  T
   2    -30.7323397 -0.797155E-07  0.169E-02    3.38       1.4  T
   3    -30.7323397  0.541266E-07  0.258E-03    3.38       8.9  T
   4    -30.7323397 -0.678645E-07  0.111E-03    3.38      20.7  T
   5    -30.7323397 -0.796442E-08  0.505E-04    3.38      45.4  T
   6    -30.7323398 -0.184314E-08  0.179E-04    3.38     128.0  T
     SCC iter.                  ...        0 min,  0.008 sec
     gradient                   ...        0 min,  0.010 sec
 * total energy  :   -30.2762964 Eh     change       -0.2386030E-04 Eh
   gradient norm :     0.0033431 Eh/α   predicted    -0.1490555E-04 ( -37.53%)
   displ. norm   :     0.2252804 α      lambda       -0.4881090E-04
   maximum displ.:     0.1352435 α      in ANC's #4, #5, #6, ...

........................................................................
.............................. CYCLE   13 ..............................
........................................................................
   1    -30.7313405 -0.307313E+02  0.612E-02    3.37       0.0  T
   2    -30.7313412 -0.698327E-06  0.359E-02    3.37       1.0  T
   3    -30.7313410  0.190429E-06  0.551E-03    3.37       4.2  T
   4    -30.7313412 -0.254007E-06  0.252E-03    3.37       9.1  T
   5    -30.7313413 -0.481416E-07  0.115E-03    3.37      19.9  T
   6    -30.7313413 -0.876939E-08  0.496E-04    3.37      46.2  T
   7    -30.7313413 -0.247127E-08  0.163E-04    3.37     141.0  T
     SCC iter.                  ...        0 min,  0.009 sec
     gradient                   ...        0 min,  0.010 sec
 * total energy  :   -30.2763204 Eh     change       -0.2398767E-04 Eh
   gradient norm :     0.0047967 Eh/α   predicted    -0.2564488E-04 (   6.91%)
   displ. norm   :     0.0983467 α      lambda       -0.7964743E-04
   maximum displ.:     0.0704608 α      in ANC's #3, #4, #5, ...

........................................................................
.............................. CYCLE   14 ..............................
........................................................................
   1    -30.7328358 -0.307328E+02  0.360E-02    3.38       0.0  T
   2    -30.7328373 -0.143861E-05  0.198E-02    3.38       1.2  T
   3    -30.7328367  0.535672E-06  0.875E-03    3.38       2.6  T
   4    -30.7328375 -0.723795E-06  0.342E-03    3.38       6.7  T
   5    -30.7328376 -0.132099E-06  0.110E-03    3.38      20.8  T
   6    -30.7328376 -0.250272E-08  0.581E-04    3.38      39.5  T
   7    -30.7328376 -0.247731E-08  0.228E-04    3.38     100.4  T
     SCC iter.                  ...        0 min,  0.009 sec
     gradient                   ...        0 min,  0.010 sec
 * total energy  :   -30.2763528 Eh     change       -0.3241062E-04 Eh
   gradient norm :     0.0020763 Eh/α   predicted    -0.4020962E-04 (  24.06%)
   displ. norm   :     0.1348272 α      lambda       -0.2455689E-04
   maximum displ.:     0.0803566 α      in ANC's #4, #5, #6, ...

........................................................................
.............................. CYCLE   15 ..............................
........................................................................
   1    -30.7319115 -0.307319E+02  0.390E-02    3.38       0.0  T
   2    -30.7319120 -0.539310E-06  0.227E-02    3.38       1.0  T
   3    -30.7319115  0.503156E-06  0.690E-03    3.38       3.3  T
   4    -30.7319120 -0.522189E-06  0.264E-03    3.38       8.7  T
   5    -30.7319121 -0.806960E-07  0.823E-04    3.38      27.9  T
   6    -30.7319121  0.437051E-09  0.436E-04    3.38      52.6  T
     SCC iter.                  ...        0 min,  0.008 sec
     gradient                   ...        0 min,  0.010 sec
 * total energy  :   -30.2763636 Eh     change       -0.1082793E-04 Eh
   gradient norm :     0.0022967 Eh/α   predicted    -0.1251042E-04 (  15.54%)
   displ. norm   :     0.0292227 α      lambda       -0.9142011E-05
   maximum displ.:     0.0149563 α      in ANC's #3, #4, #5, ...

........................................................................
.............................. CYCLE   16 ..............................
........................................................................
   1    -30.7325239 -0.307325E+02  0.105E-02    3.38       0.0  T
   2    -30.7325240 -0.118665E-06  0.601E-03    3.38       3.8  T
   3    -30.7325240  0.211387E-07  0.225E-03    3.38      10.2  T
   4    -30.7325240 -0.330374E-07  0.876E-04    3.38      26.2  T
   5    -30.7325240 -0.648870E-08  0.372E-04    3.38      61.6  T
     SCC iter.                  ...        0 min,  0.007 sec
     gradient                   ...        0 min,  0.010 sec
 * total energy  :   -30.2763694 Eh     change       -0.5782102E-05 Eh
   gradient norm :     0.0009932 Eh/α   predicted    -0.4576177E-05 ( -20.86%)
   displ. norm   :     0.0643121 α      lambda       -0.7014003E-05
   maximum displ.:     0.0360706 α      in ANC's #4, #5, #6, ...

........................................................................
.............................. CYCLE   17 ..............................
........................................................................
   1    -30.7328576 -0.307329E+02  0.202E-02    3.38       0.0  T
   2    -30.7328578 -0.227508E-06  0.118E-02    3.38       1.9  T
   3    -30.7328576  0.191357E-06  0.462E-03    3.38       5.0  T
   4    -30.7328578 -0.213155E-06  0.181E-03    3.38      12.7  T
   5    -30.7328579 -0.363507E-07  0.563E-04    3.38      40.8  T
   6    -30.7328579 -0.212911E-08  0.209E-04    3.38     109.8  T
     SCC iter.                  ...        0 min,  0.008 sec
     gradient                   ...        0 min,  0.010 sec
 * total energy  :   -30.2763761 Eh     change       -0.6670330E-05 Eh
   gradient norm :     0.0012844 Eh/α   predicted    -0.3528650E-05 ( -47.10%)
   displ. norm   :     0.0676249 α      lambda        0.1272284E-05
   maximum displ.:     0.0379090 α      in ANC's #4, #5, #6, ...

........................................................................
.............................. CYCLE   18 ..............................
........................................................................
   1    -30.7330490 -0.307330E+02  0.212E-02    3.38       0.0  T
   2    -30.7330493 -0.242199E-06  0.124E-02    3.38       1.8  T
   3    -30.7330490  0.221157E-06  0.490E-03    3.38       4.7  T
   4    -30.7330493 -0.242130E-06  0.190E-03    3.38      12.1  T
   5    -30.7330493 -0.408969E-07  0.574E-04    3.38      39.9  T
   6    -30.7330493 -0.213582E-08  0.212E-04    3.38     108.0  T
     SCC iter.                  ...        0 min,  0.008 sec
     gradient                   ...        0 min,  0.010 sec
 * total energy  :   -30.2763753 Eh     change        0.7253744E-06 Eh
   gradient norm :     0.0026610 Eh/α   predicted     0.6328015E-06 ( -12.76%)
   displ. norm   :     0.0098737 α      lambda       -0.6228362E-05
   maximum displ.:     0.0049133 α      in ANC's #2, #4, #6, ...

........................................................................
.............................. CYCLE   19 ..............................
........................................................................
   1    -30.7327875 -0.307328E+02  0.584E-03    3.38       0.0  T
   2    -30.7327875 -0.599828E-07  0.370E-03    3.38       6.2  T
   3    -30.7327875  0.379137E-08  0.210E-03    3.38      10.9  T
   4    -30.7327876 -0.264597E-07  0.840E-04    3.38      27.3  T
   5    -30.7327876 -0.708642E-08  0.229E-04    3.38     100.2  T
     SCC iter.                  ...        0 min,  0.007 sec
     gradient                   ...        0 min,  0.010 sec
 * total energy  :   -30.2763805 Eh     change       -0.5179488E-05 Eh
   gradient norm :     0.0018376 Eh/α   predicted    -0.3117238E-05 ( -39.82%)
   displ. norm   :     0.0833237 α      lambda       -0.1257041E-04
   maximum displ.:     0.0441165 α      in ANC's #4, #2, #5, ...

........................................................................
.............................. CYCLE   20 ..............................
........................................................................
   1    -30.7321559 -0.307322E+02  0.257E-02    3.38       0.0  T
   2    -30.7321565 -0.593161E-06  0.160E-02    3.38       1.4  T
   3    -30.7321560  0.522059E-06  0.925E-03    3.38       2.5  T
   4    -30.7321567 -0.781663E-06  0.263E-03    3.38       8.7  T
   5    -30.7321568 -0.810114E-07  0.770E-04    3.38      29.8  T
   6    -30.7321568 -0.587313E-08  0.278E-04    3.38      82.6  T
     SCC iter.                  ...        0 min,  0.008 sec
     gradient                   ...        0 min,  0.010 sec
 * total energy  :   -30.2763891 Eh     change       -0.8550898E-05 Eh
   gradient norm :     0.0014071 Eh/α   predicted    -0.6309540E-05 ( -26.21%)
   displ. norm   :     0.0450208 α      lambda       -0.3760170E-05
   maximum displ.:     0.0220675 α      in ANC's #4, #2, #5, ...
 * RMSD in coord.:     0.3305697 α      energy gain  -0.4252618E-02 Eh

generating ANC from model Hessian ...
Using Lindh-Hessian (1995)
 Shifting diagonal of input Hessian by   8.163890308904050E-003
 Lowest  eigenvalues of input Hessian
    0.000000    0.000000    0.000000    0.000000    0.000000    0.000000
    0.010000    0.011814    0.012851    0.016149    0.019048    0.024733
    0.031542    0.036088    0.043561    0.045527    0.055952    0.057875
 Highest eigenvalues
    1.735629    1.849347    1.974527    2.034021    2.092135    2.154625
 

........................................................................
.............................. CYCLE   21 ..............................
........................................................................
   1    -30.7324527 -0.307325E+02  0.118E-02    3.38       0.0  T
   2    -30.7324527 -0.347727E-07  0.702E-03    3.38       3.3  T
   3    -30.7324527  0.318538E-07  0.177E-03    3.38      13.0  T
   4    -30.7324527 -0.374549E-07  0.548E-04    3.38      41.9  T
   5    -30.7324527 -0.282833E-08  0.257E-04    3.38      89.3  T
     SCC iter.                  ...        0 min,  0.007 sec
     gradient                   ...        0 min,  0.010 sec
 * total energy  :   -30.2763937 Eh     change       -0.4682371E-05 Eh
   gradient norm :     0.0009217 Eh/α   predicted     0.0000000E+00 (-100.00%)
   displ. norm   :     0.0099702 α      lambda       -0.1367456E-05
   maximum displ.:     0.0080892 α      in ANC's #2, #4, #3, ...

   *** GEOMETRY OPTIMIZATION CONVERGED AFTER 21 ITERATIONS ***

------------------------------------------------------------------------
 total energy gain   :        -0.0042573 Eh       -2.6715 kcal/mol
 total RMSD          :         0.3305697 a0        0.1749 Å
 total power (kW/mol):        -0.5322638 (step)  -22.3698 (real)
------------------------------------------------------------------------

 ANCopt (total)                0 d,  0 h,  0 min,  0.500 sec
 optimizer setup                ...        0 min,  0.001 sec (  0.104%)
 model hessian                  ...        0 min,  0.006 sec (  1.292%)
 ANC generation                 ...        0 min,  0.002 sec (  0.318%)
 coordinate transformation      ...        0 min,  0.000 sec (  0.070%)
 single point calculation       ...        0 min,  0.482 sec ( 96.537%)
 optimization log               ...        0 min,  0.004 sec (  0.883%)
 hessian update                 ...        0 min,  0.000 sec (  0.060%)
 rational function              ...        0 min,  0.002 sec (  0.428%)

================
 final structure:
================
19
 xtb: 6.4.1 (afa7bdf)
C        -1.87390607890977    0.63466800534607   -1.07064823392162
C        -1.39720084357785    0.05365322915264    0.12776195742614
C        -0.02569997908092   -0.21223635912553    0.50226590218372
C         1.10148826728830    0.04016615531155   -0.33197407488530
C         2.28478009233250   -0.29034226246693    0.24050090037340
S         2.04348773652349   -0.92752166941952    1.84109968026805
C         0.34438121800997   -0.73708512354987    1.70597757227772
C         3.65619897797975   -0.16315090291475   -0.32129184683312
N        -2.41501104683598   -0.24018955506580    0.92974007187944
N        -3.51136900242977    0.13425411247984    0.27991883832265
C        -3.23730446091801    0.66711428753062   -0.92926906306783
H        -1.29886509336410    0.97732961730074   -1.90533504759987
H         1.02545579937626    0.45100415543862   -1.32273571662509
H        -0.29672183644012   -1.01876243044904    2.51594557766612
H         4.24101620787295    0.55574149991308    0.25320717227277
H         4.17686185777245   -1.11991755652163   -0.28666025297494
H         3.60519890829325    0.17330988265412   -1.35438129225281
H        -4.41354843165430    0.00106142833769    0.70870411387199
H        -4.00924029223806    1.02090348604806   -1.58282625838139
 
 Bond Distances (Angstroems)
 ---------------------------
C1-C2=1.4146         C1-C11=1.3711        C1-H12=1.0699        C2-C1=1.4146         C2-C3=1.4464         C2-N9=1.3287         
C3-C2=1.4464         C3-C4=1.4249         C3-C7=1.3643         C4-C3=1.4249         C4-C5=1.3554         C4-H13=1.0753        
C5-C4=1.3554         C5-S6=1.7396         C5-C8=1.4875         S6-C5=1.7396         S6-C7=1.7151         C7-C3=1.3643         
C7-S6=1.7151         C7-H14=1.0707        C8-C5=1.4875         C8-H15=1.0904        C8-H16=1.0898        C8-H17=1.0877        
N9-C2=1.3287         N9-N10=1.3283        N10-N9=1.3283        N10-C11=1.3495       N10-H18=1.0077       C11-C1=1.3711        
C11-N10=1.3495       C11-H19=1.0715       H12-C1=1.0699        H13-C4=1.0753        H14-C7=1.0707        H15-C8=1.0904        
H16-C8=1.0898        H17-C8=1.0877        H18-N10=1.0077       H19-C11=1.0715       
 C  H  Rav=1.0793 sigma=0.0088  Rmin=1.0699  Rmax=1.0904     7
 C  C  Rav=1.4092 sigma=0.0449  Rmin=1.3554  Rmax=1.4875     7
 N  H  Rav=1.0077 sigma=0.0000  Rmin=1.0077  Rmax=1.0077     1
 N  C  Rav=1.3391 sigma=0.0104  Rmin=1.3287  Rmax=1.3495     2
 N  N  Rav=1.3283 sigma=0.0000  Rmin=1.3283  Rmax=1.3283     1
 S  C  Rav=1.7273 sigma=0.0123  Rmin=1.7151  Rmax=1.7396     2
 
 selected bond angles (degree)
 --------------------
C11-C1-C2=104.92               H12-C1-C2=127.69               H12-C1-C11=127.39              C3-C2-C1=127.91                
N9-C2-C1=110.12                N9-C2-C3=121.97                C4-C3-C2=124.47                C7-C3-C2=123.81                
C7-C3-C4=111.72                C5-C4-C3=113.59                H13-C4-C3=123.45               H13-C4-C5=122.96               
S6-C5-C4=110.91                C8-C5-C4=128.65                C8-C5-S6=120.45                C7-S6-C5= 91.39                
S6-C7-C3=112.39                H14-C7-C3=127.32               H14-C7-S6=120.29               H15-C8-C5=110.60               
H16-C8-C5=110.70               H16-C8-H15=107.81              H17-C8-C5=110.00               H17-C8-H15=108.76              
H17-C8-H16=108.91              N10-N9-C2=105.94               C11-N10-N9=112.46              H18-N10-N9=119.57              
H18-N10-C11=127.97             
 
 selected dihedral angles (degree)
 ---------------------------------
C3-C2-C1-C11=180.12           C3-C2-C1-H12=359.97           N9-C2-C1-C11=  0.00           N9-C2-C1-H12=179.85           
C4-C3-C2-C1=357.72            C4-C3-C2-N9=177.85            C7-C3-C2-C1=177.65            C7-C3-C2-N9=357.78            
C5-C4-C3-C2=179.93            C5-C4-C3-C7=  0.00            H13-C4-C3-C2=359.77           H13-C4-C3-C7=179.84           
S6-C5-C4-C3=359.95            S6-C5-C4-H13=180.10           C8-C5-C4-C3=180.29            C8-C5-C4-H13=  0.45           
C7-S6-C5-C4=  0.07            C7-S6-C5-C8=179.76            S6-C7-C3-C2=180.13            S6-C7-C3-C4=  0.06            
H14-C7-C3-C2=  0.07           H14-C7-C3-C4=180.01           C3-C7-S6-C5=359.92            H14-C7-S6-C5=179.97           
H15-C8-C5-C4=115.11           H15-C8-C5-S6=295.48           H16-C8-C5-C4=234.54           H16-C8-C5-S6= 54.91           
H17-C8-C5-C4=354.95           H17-C8-C5-S6=175.32           N10-N9-C2-C1=  0.00           N10-N9-C2-C3=179.90           
C11-N10-N9-C2=  0.00          H18-N10-N9-C2=179.91          
           -------------------------------------------------
          |                Final Singlepoint                |
           -------------------------------------------------

          ...................................................
          :                      SETUP                      :
          :.................................................:
          :  # basis functions                  58          :
          :  # atomic orbitals                  57          :
          :  # shells                           31          :
          :  # electrons                        56          :
          :  max. iterations                   250          :
          :  Hamiltonian                  GFN2-xTB          :
          :  restarted?                      false          :
          :  GBSA solvation                  false          :
          :  PC potential                    false          :
          :  electronic temp.          300.0000000     K    :
          :  accuracy                    1.0000000          :
          :  -> integral cutoff          0.2500000E+02      :
          :  -> integral neglect         0.1000000E-07      :
          :  -> SCF convergence          0.1000000E-05 Eh   :
          :  -> wf. convergence          0.1000000E-03 e    :
          :  Broyden damping             0.4000000          :
          ...................................................

 iter      E             dE          RMSdq      gap      omega  full diag
   1    -30.7324527 -0.307325E+02  0.833E-05    3.38       0.0  T
   2    -30.7324527 -0.154223E-10  0.561E-05    3.38     408.7  T
   3    -30.7324527 -0.239773E-10  0.297E-05    3.38     772.0  T

   *** convergence criteria satisfied after 3 iterations ***

         #    Occupation            Energy/Eh            Energy/eV
      -------------------------------------------------------------
         1        2.0000           -0.7194708             -19.5778
       ...           ...                  ...                  ...
        22        2.0000           -0.4425542             -12.0425
        23        2.0000           -0.4363674             -11.8742
        24        2.0000           -0.4175528             -11.3622
        25        2.0000           -0.4018258             -10.9342
        26        2.0000           -0.3881019             -10.5608
        27        2.0000           -0.3829403             -10.4203
        28        2.0000           -0.3650719              -9.9341 (HOMO)
        29                         -0.2410185              -6.5584 (LUMO)
        30                         -0.2097889              -5.7086
        31                         -0.1920242              -5.2252
        32                         -0.1822609              -4.9596
        33                         -0.1074914              -2.9250
       ...                                ...                  ...
        57                          0.7311190              19.8948
      -------------------------------------------------------------
                  HL-Gap            0.1240534 Eh            3.3757 eV
             Fermi-level           -0.3030452 Eh           -8.2463 eV
 
 localization/xTB-IFF output generation
 averaging CT terms over            1  occ. levels
 averaging CT terms over            1  virt. levels
 dipole moment from electron density (au)
     X       Y       Z   
  -0.6994   0.3949  -0.7778  total (Debye):    2.842
cpu  time for init local    0.00 s
wall time for init local    0.00 s
 doing rotations ...
 initialization of trafo matrix to unity
iteration     50  convergence  0.71583634D-05

 converged in     60 iterations, threshold :   0.98063951D-06
 doing transformations ...
 lmo centers(Z=2) and atoms on file <lmocent.coord>
 LMO Fii/eV  ncent    charge center   contributions...
    1 sigma -17.08   1.96  -5.66332  -0.09512   1.13335   10N :  0.56    9N :  0.45
    2 sigma -16.54   1.92  -6.49137   0.71370  -0.51359   10N :  0.58   11C :  0.43
    3 sigma -15.97   1.95  -7.67479   0.10569   1.01043   10N :  0.58   18H :  0.42
    4 sigma -14.84   1.93   2.27745  -1.60764   3.43210    6S :  0.59    7C :  0.42
    5 sigma -14.84   1.94   4.18164  -1.17381   2.00552    6S :  0.59    5C :  0.41
    6 sigma -14.72   1.97   5.61000  -0.43350  -0.06757    5C :  0.51    8C :  0.50
    7 sigma -14.58   2.02  -1.33364  -0.14999   0.59218    2C :  0.50    3C :  0.50
    8 sigma -14.55   2.00   0.96794  -0.13715   0.11031    3C :  0.50    4C :  0.50
    9 sigma -14.53   1.99  -2.98314   0.66643  -0.94477    1C :  0.51    2C :  0.49
   10 sigma -14.46   2.01  -7.08187   1.70179  -2.57087   11C :  0.51   19H :  0.49
   11 sigma -13.90   1.98   6.82923   0.10477  -1.87467    8C :  0.52   17H :  0.48
   12 sigma -13.89   2.00   7.58482   0.57348   0.11093    8C :  0.52   15H :  0.48
   13 sigma -13.88   2.00   7.51222  -1.48689  -0.55446    8C :  0.52   16H :  0.48
   14 sigma -13.88   2.00  -0.12740  -1.74426   4.23081    7C :  0.52   14H :  0.48
   15 LP    -13.86   1.19   4.04429  -4.20366   3.07911    6S :  0.92
   16 LP    -13.85   1.19   4.39012   0.22703   4.88946    6S :  0.92
   17 sigma -13.81   2.01  -2.81613   1.62602  -3.06498    1C :  0.51   12H :  0.49
   18 sigma -13.81   2.02   1.99176   0.58328  -1.85155    4C :  0.51   13H :  0.49
   19 pi    -13.73   2.16  -3.70609  -0.58873   0.80769    9N :  0.52    2C :  0.43
   20 pi    -13.72   2.16  -3.65023   0.24949   1.18916    9N :  0.52    2C :  0.43
   21 delpi -13.41   2.21  -4.73736   0.72448  -2.00655    1C :  0.49   11C :  0.46
   22 delpi -13.40   2.21  -4.67235   1.63447  -1.58962    1C :  0.49   11C :  0.46
   23 pi    -13.31   1.62  -6.24035   0.31299   0.36032   10N :  0.78   11C :  0.10    9N :  0.08
   24 pi    -13.31   2.13   3.08064  -0.73261  -0.22788    4C :  0.49    5C :  0.48
   25 pi    -13.30   2.13   3.15678   0.22737   0.16554    4C :  0.49    5C :  0.48
   26 pi    -13.25   2.19   0.36024  -0.39278   2.19288    3C :  0.48    7C :  0.47
   27 pi    -13.21   2.20   0.28871  -1.33477   1.80663    3C :  0.48    7C :  0.47
   28 LP    -11.59   1.02  -4.63638  -1.22287   3.44981    9N :  0.99
 starting deloc pi regularization ...
 thr    2.20000000000000      # pi deloc LMO           5
 files:
 coordprot.0/xtbscreen.xyz/xtblmoinfo/lmocent.coord
 with protonation site input, xtbdock and
 LMO center info written
 

 SCC (total)                   0 d,  0 h,  0 min,  0.036 sec
 SCC setup                      ...        0 min,  0.000 sec (  0.440%)
 Dispersion                     ...        0 min,  0.000 sec (  0.344%)
 classical contributions        ...        0 min,  0.000 sec (  0.103%)
 integral evaluation            ...        0 min,  0.005 sec ( 12.663%)
 iterations                     ...        0 min,  0.004 sec ( 12.000%)
 molecular gradient             ...        0 min,  0.010 sec ( 28.023%)
 printout                       ...        0 min,  0.017 sec ( 46.299%)

         :::::::::::::::::::::::::::::::::::::::::::::::::::::
         ::                     SUMMARY                     ::
         :::::::::::::::::::::::::::::::::::::::::::::::::::::
         :: total energy             -30.276393741340 Eh    ::
         :: gradient norm              0.000922589860 Eh/a0 ::
         :: HOMO-LUMO gap              3.375665932569 eV    ::
         ::.................................................::
         :: SCC energy               -30.732452739632 Eh    ::
         :: -> isotropic ES            0.011355230649 Eh    ::
         :: -> anisotropic ES          0.003680671513 Eh    ::
         :: -> anisotropic XC          0.020471923986 Eh    ::
         :: -> dispersion             -0.017883744860 Eh    ::
         :: repulsion energy           0.456096129698 Eh    ::
         :: add. restraining           0.000000000000 Eh    ::
         :: total charge               0.000000000000 e     ::
         :::::::::::::::::::::::::::::::::::::::::::::::::::::

           -------------------------------------------------
          |                Property Printout                |
           -------------------------------------------------

    * Orbital Energies and Occupations

         #    Occupation            Energy/Eh            Energy/eV
      -------------------------------------------------------------
         1        2.0000           -0.7194708             -19.5778
       ...           ...                  ...                  ...
        16        2.0000           -0.4883034             -13.2874
        17        2.0000           -0.4838872             -13.1672
        18        2.0000           -0.4761349             -12.9563
        19        2.0000           -0.4658548             -12.6766
        20        2.0000           -0.4600747             -12.5193
        21        2.0000           -0.4483204             -12.1994
        22        2.0000           -0.4425542             -12.0425
        23        2.0000           -0.4363674             -11.8742
        24        2.0000           -0.4175528             -11.3622
        25        2.0000           -0.4018258             -10.9342
        26        2.0000           -0.3881019             -10.5608
        27        2.0000           -0.3829403             -10.4203
        28        2.0000           -0.3650719              -9.9341 (HOMO)
        29                         -0.2410185              -6.5584 (LUMO)
        30                         -0.2097889              -5.7086
        31                         -0.1920242              -5.2252
        32                         -0.1822609              -4.9596
        33                         -0.1074914              -2.9250
        34                         -0.0997483              -2.7143
        35                          0.0039938               0.1087
        36                          0.0178222               0.4850
        37                          0.0345595               0.9404
        38                          0.0462869               1.2595
        39                          0.1091365               2.9698
       ...                                ...                  ...
        57                          0.7311190              19.8948
      -------------------------------------------------------------
                  HL-Gap            0.1240534 Eh            3.3757 eV
             Fermi-level           -0.3030452 Eh           -8.2463 eV

     #   Z          covCN         q      C6AA      α(0)
     1   6 C        3.025    -0.072    29.773     8.950
     2   6 C        3.164     0.068    26.163     8.360
     3   6 C        3.158    -0.008    27.894     8.635
     4   6 C        3.121    -0.063    29.380     8.877
     5   6 C        2.979     0.025    27.439     8.592
     6  16 S        2.326    -0.050   143.127    20.136
     7   6 C        2.943    -0.024    28.598     8.771
     8   6 C        3.775    -0.107    22.566     6.768
     9   7 N        1.998    -0.235    26.937     7.698
    10   7 N        2.998     0.011    21.058     6.815
    11   6 C        3.006    -0.007    28.186     8.709
    12   1 H        0.927     0.027     2.623     2.533
    13   1 H        0.926     0.033     2.539     2.492
    14   1 H        0.927     0.053     2.285     2.364
    15   1 H        0.924     0.053     2.279     2.361
    16   1 H        0.925     0.053     2.278     2.360
    17   1 H        0.925     0.048     2.339     2.392
    18   1 H        0.860     0.161     1.331     1.807
    19   1 H        0.926     0.032     2.553     2.499

 Mol. C6AA /au·bohr⁶  :       5713.290865
 Mol. C8AA /au·bohr⁸  :     157112.828802
 Mol. α(0) /au        :        121.117571


Wiberg/Mayer (AO) data.
largest (>0.10) Wiberg bond orders for each atom

 ---------------------------------------------------------------------------
     #   Z sym  total        # sym  WBO       # sym  WBO       # sym  WBO
 ---------------------------------------------------------------------------
     1   6 C    3.980 --    11 C    1.534     2 C    1.302    12 H    0.974
     2   6 C    3.977 --     9 N    1.453     1 C    1.302     3 C    1.076
     3   6 C    3.987 --     7 C    1.558     4 C    1.214     2 C    1.076
     4   6 C    3.984 --     5 C    1.631     3 C    1.214    13 H    0.963
     5   6 C    3.951 --     4 C    1.631     6 S    1.143     8 C    1.037
                             7 C    0.105
     6  16 S    2.598 --     7 C    1.194     5 C    1.143
     7   6 C    3.945 --     3 C    1.558     6 S    1.194    14 H    0.969
                             5 C    0.105
     8   6 C    3.996 --     5 C    1.037    17 H    0.981    16 H    0.972
                            15 H    0.970
     9   7 N    2.963 --     2 C    1.453    10 N    1.216    11 C    0.162
    10   7 N    3.623 --    11 C    1.272     9 N    1.216    18 H    0.944
    11   6 C    3.957 --     1 C    1.534    10 N    1.272    19 H    0.969
                             9 N    0.162
    12   1 H    0.999 --     1 C    0.974
    13   1 H    0.999 --     4 C    0.963
    14   1 H    0.997 --     7 C    0.969
    15   1 H    0.997 --     8 C    0.970
    16   1 H    0.997 --     8 C    0.972
    17   1 H    0.997 --     8 C    0.981
    18   1 H    0.974 --    10 N    0.944
    19   1 H    0.998 --    11 C    0.969
 ---------------------------------------------------------------------------

Topologies differ in total number of bonds
Writing topology from bond orders to xtbtopo.mol

molecular dipole:
                 x           y           z       tot (Debye)
 q only:       -0.287       0.158      -0.314
   full:       -0.699       0.395      -0.778       2.842
molecular quadrupole (traceless):
                xx          xy          yy          xz          yz          zz
 q only:       11.026      -0.696      -5.780      -1.394      -0.153      -5.246
  q+dip:       14.610      -0.937      -8.096      -1.982      -0.659      -6.514
   full:       13.920      -0.715      -6.665      -2.066       0.536      -7.255

           -------------------------------------------------
          |                Geometry Summary                 |
           -------------------------------------------------

      molecular mass/u    :      164.2276070
   center of mass at/Å    :       -0.0255062      -0.1842704       0.4387762
  moments of inertia/u·Å² :        0.1763056E+03   0.9510112E+03   0.1124079E+04
rotational constants/cm⁻¹ :        0.9561595E-01   0.1772601E-01   0.1499684E-01

 * 20 selected distances

     #   Z          #   Z                                           value/Å
     1   6 C        2   6 C                                       1.4145717
     2   6 C        3   6 C                                       1.4463627
     3   6 C        4   6 C                                       1.4248567
     4   6 C        5   6 C                                       1.3554125
     5   6 C        6  16 S                                       1.7395793 (max)
     3   6 C        7   6 C                                       1.3643123
     6  16 S        7   6 C                                       1.7150764
     5   6 C        8   6 C                                       1.4874739
     2   6 C        9   7 N                                       1.3287024
     9   7 N       10   7 N                                       1.3283360
     1   6 C       11   6 C                                       1.3710930
    10   7 N       11   6 C                                       1.3495135
     1   6 C       12   1 H                                       1.0699492
     4   6 C       13   1 H                                       1.0752569
     7   6 C       14   1 H                                       1.0707023
     8   6 C       15   1 H                                       1.0903516
     8   6 C       16   1 H                                       1.0898126
     8   6 C       17   1 H                                       1.0876951
    10   7 N       18   1 H                                       1.0077325 (min)
    11   6 C       19   1 H                                       1.0715357

 * 6 distinct bonds (by element types)

   Z      Z             #   av. dist./Å        max./Å        min./Å
   1 H    6 C           7     1.0793291     1.0903516     1.0699492
   6 C    6 C           7     1.4091547     1.4874739     1.3554125
   1 H    7 N           1     1.0077325     1.0077325     1.0077325
   6 C    7 N           2     1.3391080     1.3495135     1.3287024
   7 N    7 N           1     1.3283360     1.3283360     1.3283360
   6 C   16 S           2     1.7273278     1.7395793     1.7150764


optimized geometry written to: xtbopt.xyz


           -------------------------------------------------
          | TOTAL ENERGY              -30.276393741340 Eh   |
          | GRADIENT NORM               0.000922589860 Eh/α |
          | HOMO-LUMO GAP               3.375665932569 eV   |
           -------------------------------------------------

------------------------------------------------------------------------
 * finished run on 2022/11/02 at 18:13:34.648     
------------------------------------------------------------------------
 total:
 * wall-time:     0 d,  0 h,  0 min,  0.683 sec
 *  cpu-time:     0 d,  0 h,  0 min,  0.625 sec
 * ratio c/w:     0.914 speedup
 SCF:
 * wall-time:     0 d,  0 h,  0 min,  0.063 sec
 *  cpu-time:     0 d,  0 h,  0 min,  0.055 sec
 * ratio c/w:     0.883 speedup
 ANC optimizer:
 * wall-time:     0 d,  0 h,  0 min,  0.540 sec
 *  cpu-time:     0 d,  0 h,  0 min,  0.533 sec
 * ratio c/w:     0.987 speedup

