      -----------------------------------------------------------      
     |                   =====================                   |     
     |                           x T B                           |     
     |                   =====================                   |     
     |                         S. Grimme                         |     
     |          Mulliken Center for Theoretical Chemistry        |     
     |                    University of Bonn                     |     
      -----------------------------------------------------------      

   * xtb version 6.4.1 (afa7bdf) compiled by 'ehlert@majestix' on 2021-06-10

   xtb is free software: you can redistribute it and/or modify it under
   the terms of the GNU Lesser General Public License as published by
   the Free Software Foundation, either version 3 of the License, or
   (at your option) any later version.
   
   xtb is distributed in the hope that it will be useful,
   but WITHOUT ANY WARRANTY; without even the implied warranty of
   MERCHANTABILITY or FITNESS FOR A PARTICULAR PURPOSE.  See the
   GNU Lesser General Public License for more details.
   
   Cite this work as:
   * C. Bannwarth, E. Caldeweyher, S. Ehlert, A. Hansen, P. Pracht,
     J. Seibert, S. Spicher, S. Grimme, WIREs Comput. Mol. Sci., 2020, 11,
     e01493. DOI: 10.1002/wcms.1493
   
   for GFN2-xTB:
   * C. Bannwarth, S. Ehlert and S. Grimme., J. Chem. Theory Comput., 2019,
     15, 1652-1671. DOI: 10.1021/acs.jctc.8b01176
   for GFN1-xTB:
   * S. Grimme, C. Bannwarth, P. Shushkov, J. Chem. Theory Comput., 2017,
     13, 1989-2009. DOI: 10.1021/acs.jctc.7b00118
   for GFN0-xTB:
   * P. Pracht, E. Caldeweyher, S. Ehlert, S. Grimme, ChemRxiv, 2019, preprint.
     DOI: 10.26434/chemrxiv.8326202.v1
   for GFN-FF:
   * S. Spicher and S. Grimme, Angew. Chem. Int. Ed., 2020, 59, 15665-15673.
     DOI: 10.1002/anie.202004239
   
   for DFT-D4:
   * E. Caldeweyher, C. Bannwarth and S. Grimme, J. Chem. Phys., 2017,
     147, 034112. DOI: 10.1063/1.4993215
   * E. Caldeweyher, S. Ehlert, A. Hansen, H. Neugebauer, S. Spicher,
     C. Bannwarth and S. Grimme, J. Chem. Phys., 2019, 150, 154122.
     DOI: 10.1063/1.5090222
   * E. Caldeweyher, J.-M. Mewes, S. Ehlert and S. Grimme, Phys. Chem. Chem. Phys.
     2020, 22, 8499-8512. DOI: 10.1039/D0CP00502A
   
   for sTDA-xTB:
   * S. Grimme and C. Bannwarth, J. Chem. Phys., 2016, 145, 054103.
     DOI: 10.1063/1.4959605
   
   in the mass-spec context:
   * V. Asgeirsson, C. Bauer and S. Grimme, Chem. Sci., 2017, 8, 4879.
     DOI: 10.1039/c7sc00601b
   * J. Koopman and S. Grimme, ACS Omega 2019, 4, 12, 15120-15133.
     DOI: 10.1021/acsomega.9b02011
   
   for metadynamics refer to:
   * S. Grimme, J. Chem. Theory Comput., 2019, 155, 2847-2862
     DOI: 10.1021/acs.jctc.9b00143
   
   for SPH calculations refer to:
   * S. Spicher and S. Grimme, J. Chem. Theory Comput., 2021, 17, 1701-1714
     DOI: 10.1021/acs.jctc.0c01306
   
   with help from (in alphabetical order)
   P. Atkinson, C. Bannwarth, F. Bohle, G. Brandenburg, E. Caldeweyher
   M. Checinski, S. Dohm, S. Ehlert, S. Ehrlich, I. Gerasimov, J. Koopman
   C. Lavigne, S. Lehtola, F. März, M. Müller, F. Musil, H. Neugebauer
   J. Pisarek, C. Plett, P. Pracht, J. Seibert, P. Shushkov, S. Spicher
   M. Stahn, M. Steiner, T. Strunk, J. Stückrath, T. Rose, and J. Unsleber
   
 * started run on 2022/11/02 at 18:13:42.330     

           -------------------------------------------------
          |                Calculation Setup                |
           -------------------------------------------------

          program call               : /lustre/hpc/kemi/borup/pKalculator/dep/xtb-6.4.1/bin/xtb --gfn 2 /lustre/hpc/kemi/borup/pKalculator/calc/test#-1=8/conf01/test#-1=8_conf01_gfn2.xyz --opt --lmo --chrg -1 --uhf 0
          hostname                   : fend01.cluster
          coordinate file            : /lustre/hpc/kemi/borup/pKalculator/calc/test#-1=8/conf01/test#-1=8_conf01_gfn2.xyz
          omp threads                :                     1
          number of atoms            :                    18
          number of electrons        :                    56
          charge                     :                    -1
          spin                       :                   0.0
          first test random number   :      0.93164763701616

   ID    Z sym.   atoms
    1    6 C      1-5, 8-10
    2    7 N      6, 7
    3   16 S      11
    4    1 H      12-18

           -------------------------------------------------
          |                 G F N 2 - x T B                 |
           -------------------------------------------------

        Reference                      10.1021/acs.jctc.8b01176
      * Hamiltonian:
        H0-scaling (s, p, d)           1.850000    2.230000    2.230000
        zeta-weighting                 0.500000
      * Dispersion:
        s8                             2.700000
        a1                             0.520000
        a2                             5.000000
        s9                             5.000000
      * Repulsion:
        kExp                           1.500000    1.000000
        rExp                           1.000000
      * Coulomb:
        alpha                          2.000000
        third order                    shell-resolved
        anisotropic                    true
        a3                             3.000000
        a5                             4.000000
        cn-shift                       1.200000
        cn-exp                         4.000000
        max-rad                        5.000000


          ...................................................
          :                      SETUP                      :
          :.................................................:
          :  # basis functions                  57          :
          :  # atomic orbitals                  56          :
          :  # shells                           30          :
          :  # electrons                        56          :
          :  max. iterations                   250          :
          :  Hamiltonian                  GFN2-xTB          :
          :  restarted?                      false          :
          :  GBSA solvation                  false          :
          :  PC potential                    false          :
          :  electronic temp.          300.0000000     K    :
          :  accuracy                    1.0000000          :
          :  -> integral cutoff          0.2500000E+02      :
          :  -> integral neglect         0.1000000E-07      :
          :  -> SCF convergence          0.1000000E-05 Eh   :
          :  -> wf. convergence          0.1000000E-03 e    :
          :  Broyden damping             0.4000000          :
          ...................................................

 iter      E             dE          RMSdq      gap      omega  full diag
   1    -30.2491165 -0.302491E+02  0.414E+00    2.50       0.0  T
   2    -30.3221851 -0.730686E-01  0.278E+00    0.86       1.0  T
   3    -30.3345016 -0.123165E-01  0.144E+00    0.75       1.0  T
   4    -30.3133649  0.211367E-01  0.145E+00    0.37       1.0  T
   5    -30.3390639 -0.256990E-01  0.526E-01    0.56       1.0  T
   6    -30.3437495 -0.468561E-02  0.133E-01    0.51       1.0  T
   7    -30.3438264 -0.768521E-04  0.720E-02    0.41       1.0  T
   8    -30.3438395 -0.131881E-04  0.306E-02    0.42       1.0  T
   9    -30.3438425 -0.296577E-05  0.150E-02    0.42       1.6  T
  10    -30.3438434 -0.852395E-06  0.768E-03    0.43       3.1  T
  11    -30.3438434 -0.403901E-07  0.251E-03    0.42       9.4  T
  12    -30.3438435 -0.605515E-07  0.117E-03    0.43      20.1  T
  13    -30.3438435 -0.394418E-08  0.524E-04    0.43      45.0  T
  14    -30.3438435 -0.240006E-08  0.149E-04    0.43     158.4  T

   *** convergence criteria satisfied after 14 iterations ***

         #    Occupation            Energy/Eh            Energy/eV
      -------------------------------------------------------------
         1        2.0000           -0.5608082             -15.2604
       ...           ...                  ...                  ...
        22        2.0000           -0.2633302              -7.1656
        23        2.0000           -0.2614639              -7.1148
        24        2.0000           -0.2480048              -6.7486
        25        2.0000           -0.2418952              -6.5823
        26        2.0000           -0.2071787              -5.6376
        27        2.0000           -0.1942863              -5.2868
        28        1.9995           -0.1075220              -2.9258 (HOMO)
        29        0.0005           -0.0918886              -2.5004 (LUMO)
        30                         -0.0509024              -1.3851
        31                         -0.0192251              -0.5231
        32                          0.0118878               0.3235
        33                          0.0611895               1.6651
       ...                                ...                  ...
        56                          0.8593256              23.3834
      -------------------------------------------------------------
                  HL-Gap            0.0156334 Eh            0.4254 eV
             Fermi-level           -0.0997053 Eh           -2.7131 eV
 
 localization/xTB-IFF output generation
 averaging CT terms over            1  occ. levels
 averaging CT terms over            1  virt. levels
 dipole moment from electron density (au)
     X       Y       Z   
  -4.2779  -0.3917  -0.5168  total (Debye):   10.998
cpu  time for init local    0.00 s
wall time for init local    0.01 s
 doing rotations ...
 initialization of trafo matrix to unity

 converged in     38 iterations, threshold :   0.99665249D-06
 doing transformations ...
 lmo centers(Z=2) and atoms on file <lmocent.coord>
 LMO Fii/eV  ncent    charge center   contributions...
    1 sigma -13.59   1.95  -4.40922  -1.86353  -1.04187    7N :  0.57    6N :  0.44
    2 sigma -13.07   1.92  -6.00473  -0.65536  -0.62356    7N :  0.58    8C :  0.43
    3 sigma -12.81   1.97  -6.32812  -2.51538  -1.45264    7N :  0.56   15H :  0.44
    4 sigma -11.48   2.01  -7.60179   1.08860   0.03668   16H :  0.51    8C :  0.49
    5 sigma -10.77   1.99  -3.08582   1.04836   0.31670    9C :  0.52    5C :  0.48
    6 sigma -10.47   2.01  -3.98211   3.05469   1.13290   17H :  0.50    9C :  0.49
    7 pi    -10.07   2.16  -5.06771   1.40813  -0.21131    9C :  0.49    8C :  0.48
    8 pi    -10.07   2.16  -5.12885   1.00339   0.71650    9C :  0.49    8C :  0.47
    9 sigma -10.02   2.01  -0.82047   0.32991   0.15245    5C :  0.54    4C :  0.46
   10 pi    -10.00   2.12  -2.69431  -0.83265  -0.98223    6N :  0.55    5C :  0.42
   11 pi     -9.99   2.13  -2.75137  -1.20231  -0.13586    6N :  0.54    5C :  0.42
   12 pi     -9.73   1.53  -5.37152  -1.37053  -0.87658    7N :  0.80    8C :  0.10
   13 sigma  -9.57   1.91   3.29614   2.84615   1.40395   11S :  0.60   10C :  0.40
   14 sigma  -9.40   1.90   5.03555   1.22888   0.90336   11S :  0.61    2C :  0.39
   15 sigma  -9.28   2.00   0.85026   3.91101   1.63751   18H :  0.53   10C :  0.47
   16 sigma  -9.23   2.00   3.75988  -0.83613   0.03359    2C :  0.51    3C :  0.49
   17 sigma  -9.19   1.99   1.46570  -0.34543   0.06723    4C :  0.52    3C :  0.48
   18 LP     -8.75   1.09   5.84342   4.28724  -0.59508   11S :  0.96
   19 LP     -8.72   1.10   5.50986   2.46458   4.14008   11S :  0.95
   20 sigma  -8.40   2.00   7.04251  -3.10344  -0.63231   13H :  0.53    1C :  0.47
   21 sigma  -8.40   2.01   2.21793  -2.49622  -0.72405   14H :  0.52    3C :  0.48
   22 sigma  -8.37   1.99   8.37934  -1.28777   0.15141   12H :  0.53    1C :  0.47
   23 LP     -8.10   1.03  -2.34647  -3.57517  -1.64978    6N :  0.99
   24 pi     -7.96   2.12   1.06952   1.54709   1.31075   10C :  0.53    4C :  0.44
   25 pi     -7.96   2.13   1.13422   1.91390   0.33898   10C :  0.53    4C :  0.44
   26 pi     -7.23   2.00   6.10782  -1.34759   0.55569    1C :  0.56    2C :  0.43
   27 pi     -7.22   2.01   6.17171  -0.96572  -0.43869    1C :  0.56    2C :  0.43
   28 delpi  -4.90   2.30   2.61979  -0.65755  -0.00246    3C :  0.63    2C :  0.14    4C :  0.14
 starting deloc pi regularization ...
 thr    2.20000000000000      # pi deloc LMO           6
 files:
 coordprot.0/xtbscreen.xyz/xtblmoinfo/lmocent.coord
 with protonation site input, xtbdock and
 LMO center info written
 

 SCC (total)                   0 d,  0 h,  0 min,  0.054 sec
 SCC setup                      ...        0 min,  0.000 sec (  0.826%)
 Dispersion                     ...        0 min,  0.000 sec (  0.633%)
 classical contributions        ...        0 min,  0.000 sec (  0.169%)
 integral evaluation            ...        0 min,  0.007 sec ( 13.674%)
 iterations                     ...        0 min,  0.018 sec ( 32.387%)
 molecular gradient             ...        0 min,  0.010 sec ( 17.800%)
 printout                       ...        0 min,  0.019 sec ( 34.393%)

         :::::::::::::::::::::::::::::::::::::::::::::::::::::
         ::                     SUMMARY                     ::
         :::::::::::::::::::::::::::::::::::::::::::::::::::::
         :: total energy             -29.918534328860 Eh    ::
         :: gradient norm              0.070433876302 Eh/a0 ::
         :: HOMO-LUMO gap              0.425407175725 eV    ::
         ::.................................................::
         :: SCC energy               -30.343843464262 Eh    ::
         :: -> isotropic ES            0.109266103354 Eh    ::
         :: -> anisotropic ES          0.015336691068 Eh    ::
         :: -> anisotropic XC          0.019434804838 Eh    ::
         :: -> dispersion             -0.018903145613 Eh    ::
         :: repulsion energy           0.425353868375 Eh    ::
         :: add. restraining           0.000000000000 Eh    ::
         :: total charge              -1.000000000000 e     ::
         :::::::::::::::::::::::::::::::::::::::::::::::::::::

      ----------------------------------------------------------- 
     |                   =====================                   |
     |                        A N C O P T                        |
     |                   =====================                   |
     |               Approximate Normal Coordinate               |
     |                Rational Function Optimizer                |
      ----------------------------------------------------------- 

          ...................................................
          :                      SETUP                      :
          :.................................................:
          :   optimization level            normal          :
          :   max. optcycles                   200          :
          :   ANC micro-cycles                  20          :
          :   degrees of freedom                48          :
          :.................................................:
          :   RF solver                   davidson          :
          :   write xtbopt.log                true          :
          :   linear?                        false          :
          :   energy convergence         0.5000000E-05 Eh   :
          :   grad. convergence          0.1000000E-02 Eh/α :
          :   maximium RF displ.         1.0000000          :
          :   Hlow (freq-cutoff)         0.1000000E-01      :
          :   Hmax (freq-cutoff)         5.0000000          :
          :   S6 in model hess.         20.0000000          :
          ...................................................

generating ANC from model Hessian ...
Using Lindh-Hessian (1995)
 Shifting diagonal of input Hessian by   8.213960035886279E-003
 Lowest  eigenvalues of input Hessian
    0.000000    0.000000    0.000000    0.000000    0.000000    0.000000
    0.010000    0.011388    0.013107    0.016523    0.018858    0.023598
    0.032481    0.033246    0.041610    0.045622    0.048027    0.061064
 Highest eigenvalues
    1.746442    1.802845    1.921709    1.930454    1.981594    2.057862
 

........................................................................
.............................. CYCLE    1 ..............................
........................................................................
   1    -30.3438435 -0.303438E+02  0.683E-05    0.43       0.0  T
   2    -30.3438435  0.431655E-10  0.704E-05    0.43     334.6  T
   3    -30.3438435 -0.590248E-10  0.432E-05    0.43     545.0  T
     SCC iter.                  ...        0 min,  0.004 sec
     gradient                   ...        0 min,  0.010 sec
 * total energy  :   -29.9185343 Eh     change       -0.1266329E-09 Eh
   gradient norm :     0.0704356 Eh/α   predicted     0.0000000E+00 (-100.00%)
   displ. norm   :     0.1814295 α      lambda       -0.6953642E-02
   maximum displ.:     0.1055877 α      in ANC's #10, #21, #17, ...

........................................................................
.............................. CYCLE    2 ..............................
........................................................................
   1    -30.3617172 -0.303617E+02  0.273E-01    0.51       0.0  T
   2    -30.3615242  0.192993E-03  0.200E-01    0.54       1.0  T
   3    -30.3614129  0.111241E-03  0.201E-01    0.54       1.0  T
   4    -30.3618661 -0.453151E-03  0.587E-02    0.55       1.0  T
   5    -30.3619133 -0.472095E-04  0.916E-03    0.54       2.6  T
   6    -30.3619138 -0.518445E-06  0.387E-03    0.54       6.1  T
   7    -30.3619138  0.616213E-08  0.195E-03    0.54      12.1  T
   8    -30.3619138 -0.346945E-07  0.734E-04    0.54      32.1  T
   9    -30.3619138 -0.893412E-09  0.340E-04    0.54      69.3  T
     SCC iter.                  ...        0 min,  0.010 sec
     gradient                   ...        0 min,  0.010 sec
 * total energy  :   -29.9234413 Eh     change       -0.4906960E-02 Eh
   gradient norm :     0.0310858 Eh/α   predicted    -0.3591265E-02 ( -26.81%)
   displ. norm   :     0.1519762 α      lambda       -0.2263408E-02
   maximum displ.:     0.0847977 α      in ANC's #10, #8, #21, ...

........................................................................
.............................. CYCLE    3 ..............................
........................................................................
   1    -30.3709160 -0.303709E+02  0.213E-01    0.58       0.0  T
   2    -30.3708433  0.726982E-04  0.144E-01    0.61       1.0  T
   3    -30.3706997  0.143645E-03  0.157E-01    0.61       1.0  T
   4    -30.3709849 -0.285198E-03  0.463E-02    0.61       1.0  T
   5    -30.3710159 -0.310534E-04  0.720E-03    0.61       3.3  T
   6    -30.3710162 -0.229743E-06  0.333E-03    0.61       7.1  T
   7    -30.3710162 -0.615341E-08  0.168E-03    0.61      14.0  T
   8    -30.3710162 -0.235317E-07  0.776E-04    0.61      30.4  T
   9    -30.3710162 -0.587935E-09  0.372E-04    0.61      63.3  T
     SCC iter.                  ...        0 min,  0.010 sec
     gradient                   ...        0 min,  0.010 sec
 * total energy  :   -29.9246570 Eh     change       -0.1215720E-02 Eh
   gradient norm :     0.0090843 Eh/α   predicted    -0.1157845E-02 (  -4.76%)
   displ. norm   :     0.0435851 α      lambda       -0.1400337E-03
   maximum displ.:     0.0366195 α      in ANC's #8, #10, #17, ...

........................................................................
.............................. CYCLE    4 ..............................
........................................................................
   1    -30.3702782 -0.303703E+02  0.424E-02    0.60       0.0  T
   2    -30.3702786 -0.448620E-06  0.260E-02    0.61       1.0  T
   3    -30.3702689  0.974088E-05  0.267E-02    0.61       1.0  T
   4    -30.3702796 -0.107087E-04  0.105E-02    0.60       2.3  T
   5    -30.3702811 -0.149715E-05  0.248E-03    0.61       9.5  T
   6    -30.3702811 -0.438775E-07  0.102E-03    0.61      23.0  T
   7    -30.3702811 -0.397187E-08  0.416E-04    0.61      56.6  T
   8    -30.3702811 -0.453181E-09  0.222E-04    0.61     106.4  T
     SCC iter.                  ...        0 min,  0.009 sec
     gradient                   ...        0 min,  0.010 sec
 * total energy  :   -29.9247600 Eh     change       -0.1029749E-03 Eh
   gradient norm :     0.0051126 Eh/α   predicted    -0.7015112E-04 ( -31.88%)
   displ. norm   :     0.0447145 α      lambda       -0.7877543E-04
   maximum displ.:     0.0373147 α      in ANC's #8, #10, #2, ...

........................................................................
.............................. CYCLE    5 ..............................
........................................................................
   1    -30.3693372 -0.303693E+02  0.386E-02    0.60       0.0  T
   2    -30.3693334  0.378485E-05  0.292E-02    0.60       1.0  T
   3    -30.3693311  0.232281E-05  0.266E-02    0.60       1.0  T
   4    -30.3693411 -0.997017E-05  0.689E-03    0.60       3.4  T
   5    -30.3693415 -0.473542E-06  0.253E-03    0.60       9.3  T
   6    -30.3693416 -0.474443E-07  0.967E-04    0.60      24.4  T
   7    -30.3693416 -0.439622E-08  0.387E-04    0.60      60.9  T
     SCC iter.                  ...        0 min,  0.009 sec
     gradient                   ...        0 min,  0.010 sec
 * total energy  :   -29.9248035 Eh     change       -0.4351521E-04 Eh
   gradient norm :     0.0016646 Eh/α   predicted    -0.3946662E-04 (  -9.30%)
   displ. norm   :     0.0148990 α      lambda       -0.5191601E-05
   maximum displ.:     0.0075987 α      in ANC's #8, #2, #10, ...

........................................................................
.............................. CYCLE    6 ..............................
........................................................................
   1    -30.3694360 -0.303694E+02  0.113E-02    0.60       0.0  T
   2    -30.3694355  0.551646E-06  0.862E-03    0.60       2.7  T
   3    -30.3694353  0.156336E-06  0.882E-03    0.60       2.7  T
   4    -30.3694363 -0.993071E-06  0.144E-03    0.60      16.4  T
   5    -30.3694363 -0.178017E-07  0.758E-04    0.60      31.1  T
   6    -30.3694363 -0.447377E-08  0.243E-04    0.60      97.1  T
     SCC iter.                  ...        0 min,  0.007 sec
     gradient                   ...        0 min,  0.010 sec
 * total energy  :   -29.9248079 Eh     change       -0.4449069E-05 Eh
   gradient norm :     0.0006865 Eh/α   predicted    -0.2594726E-05 ( -41.68%)
   displ. norm   :     0.0080527 α      lambda       -0.1066363E-05
   maximum displ.:     0.0055242 α      in ANC's #2, #10, #3, ...

   *** GEOMETRY OPTIMIZATION CONVERGED AFTER 6 ITERATIONS ***

------------------------------------------------------------------------
 total energy gain   :        -0.0062736 Eh       -3.9368 kcal/mol
 total RMSD          :         0.0924411 a0        0.0489 Å
 total power (kW/mol):        -2.7452310 (step) -114.4921 (real)
------------------------------------------------------------------------

 ANCopt (total)                0 d,  0 h,  0 min,  0.144 sec
 optimizer setup                ...        0 min,  0.001 sec (  0.391%)
 model hessian                  ...        0 min,  0.003 sec (  1.847%)
 ANC generation                 ...        0 min,  0.001 sec (  0.499%)
 coordinate transformation      ...        0 min,  0.000 sec (  0.064%)
 single point calculation       ...        0 min,  0.136 sec ( 94.647%)
 optimization log               ...        0 min,  0.002 sec (  1.186%)
 hessian update                 ...        0 min,  0.000 sec (  0.060%)
 rational function              ...        0 min,  0.001 sec (  0.936%)

================
 final structure:
================
18
 xtb: 6.4.1 (afa7bdf)
C         3.77023666985907   -0.94041949958294   -0.06090007634250
C         2.59736341529708   -0.27825445220264    0.11272707999621
C         1.27348516884837   -0.68094668624361   -0.13712221822295
C         0.30119068274149    0.28034299021354    0.16882881786376
C        -1.11639617785782    0.07475296955027   -0.01079595955986
N        -1.63132975131768   -1.03675089282650   -0.52445636555364
N        -2.96183161689055   -0.86274088869747   -0.53422288360755
C        -3.32115741811541    0.34424174227337   -0.03506999439588
C        -2.16373527571112    0.98130279714842    0.31454548514101
C         0.81367260609441    1.45990858889449    0.66775085853631
S         2.56163194743452    1.38953098519789    0.75718237936630
H         4.72145548478363   -0.49665392327158    0.17814550409582
H         3.77272464556435   -1.94622623561643   -0.45022878471461
H         1.03649432968557   -1.65490446242725   -0.52912618481283
H        -3.55871693043074   -1.59176372393953   -0.88854843830262
H        -4.35211094573535    0.64036994719642    0.02750539423794
H        -2.06258996592525    1.95683481226408    0.74481546698699
H         0.31961513167542    2.36137293206954    0.97042291928807
 
 Bond Distances (Angstroems)
 ---------------------------
C1-C2=1.3580         C1-H12=1.0765        C1-H13=1.0785        C2-C1=1.3580         C2-C3=1.4061         C2-S11=1.7883        
C3-C2=1.4061         C3-C4=1.4011         C3-H14=1.0763        C4-C3=1.4011         C4-C5=1.4436         C4-C10=1.3795        
C5-C4=1.4436         C5-N6=1.3283         C5-C9=1.4229         N6-C5=1.3283         N6-N7=1.3419         N7-N6=1.3419         
N7-C8=1.3546         N7-H15=1.0066        C8-N7=1.3546         C8-C9=1.3666         C8-H16=1.0745        C9-C5=1.4229         
C9-C8=1.3666         C9-H17=1.0710        C10-C4=1.3795        C10-S11=1.7517       C10-H18=1.0716       S11-C2=1.7883        
S11-C10=1.7517       H12-C1=1.0765        H13-C1=1.0785        H14-C3=1.0763        H15-N7=1.0066        H16-C8=1.0745        
H17-C9=1.0710        H18-C10=1.0716       
 C  H  Rav=1.0747 sigma=0.0027  Rmin=1.0710  Rmax=1.0785     6
 C  C  Rav=1.3968 sigma=0.0285  Rmin=1.3580  Rmax=1.4436     7
 N  H  Rav=1.0066 sigma=0.0000  Rmin=1.0066  Rmax=1.0066     1
 N  C  Rav=1.3415 sigma=0.0132  Rmin=1.3283  Rmax=1.3546     2
 N  N  Rav=1.3419 sigma=0.0000  Rmin=1.3419  Rmax=1.3419     1
 S  C  Rav=1.7700 sigma=0.0183  Rmin=1.7517  Rmax=1.7883     2
 
 selected bond angles (degree)
 --------------------
H12-C1-C2=122.26               H13-C1-C2=120.19               H13-C1-H12=117.55              C3-C2-C1=130.60                
S11-C2-C1=121.20               S11-C2-C3=108.20               C4-C3-C2=114.71                H14-C3-C2=122.08               
H14-C3-C4=123.20               C5-C4-C3=123.82                C10-C4-C3=114.07               C10-C4-C5=122.11               
N6-C5-C4=123.23                C9-C5-C4=127.13                C9-C5-N6=109.65                N7-N6-C5=106.18                
C8-N7-N6=112.08                H15-N7-N6=119.77               H15-N7-C8=128.15               C9-C8-N7=106.56                
H16-C8-N7=121.44               H16-C8-C9=132.01               C8-C9-C5=105.54                H17-C9-C5=127.06               
H17-C9-C8=127.40               S11-C10-C4=110.78              H18-C10-C4=130.56              H18-C10-S11=118.65             
 
 selected dihedral angles (degree)
 ---------------------------------
C3-C2-C1-H12=179.98           C3-C2-C1-H13=  0.00           S11-C2-C1-H12=359.96          S11-C2-C1-H13=179.96          
C4-C3-C2-C1=179.91            C4-C3-C2-S11=359.92           H14-C3-C2-C1=  0.14           H14-C3-C2-S11=180.15          
C5-C4-C3-C2=180.00            C5-C4-C3-H14=359.77           C10-C4-C3-C2=359.85           C10-C4-C3-H14=179.62          
N6-C5-C4-C3=357.85            N6-C5-C4-C10=178.02           C9-C5-C4-C3=177.84            C9-C5-C4-C10=358.01           
N7-N6-C5-C4=180.00            N7-N6-C5-C9=  0.00            C8-N7-N6-C5=  0.00            H15-N7-N6-C5=179.95           
C9-C8-N7-N6=  0.00            C9-C8-N7-H15=180.05           H16-C8-N7-N6=180.02           H16-C8-N7-H15=  0.08          
C8-C9-C5-C4=180.00            C8-C9-C5-N6=  0.00            H17-C9-C5-C4=359.90           H17-C9-C5-N6=179.89           
C5-C9-C8-N7=  0.00            C5-C9-C8-H16=179.98           H17-C9-C8-N7=180.11           H17-C9-C8-H16=  0.08          
S11-C10-C4-C3=  0.31          S11-C10-C4-C5=180.16          H18-C10-C4-C3=179.05          H18-C10-C4-C5=358.90          
           -------------------------------------------------
          |                Final Singlepoint                |
           -------------------------------------------------

          ...................................................
          :                      SETUP                      :
          :.................................................:
          :  # basis functions                  57          :
          :  # atomic orbitals                  56          :
          :  # shells                           30          :
          :  # electrons                        56          :
          :  max. iterations                   250          :
          :  Hamiltonian                  GFN2-xTB          :
          :  restarted?                      false          :
          :  GBSA solvation                  false          :
          :  PC potential                    false          :
          :  electronic temp.          300.0000000     K    :
          :  accuracy                    1.0000000          :
          :  -> integral cutoff          0.2500000E+02      :
          :  -> integral neglect         0.1000000E-07      :
          :  -> SCF convergence          0.1000000E-05 Eh   :
          :  -> wf. convergence          0.1000000E-03 e    :
          :  Broyden damping             0.4000000          :
          ...................................................

 iter      E             dE          RMSdq      gap      omega  full diag
   1    -30.3694363 -0.303694E+02  0.780E-05    0.60       0.0  T
   2    -30.3694363 -0.111200E-10  0.593E-05    0.60     397.4  T
   3    -30.3694363 -0.383267E-10  0.354E-05    0.60     665.9  T

   *** convergence criteria satisfied after 3 iterations ***

         #    Occupation            Energy/Eh            Energy/eV
      -------------------------------------------------------------
         1        2.0000           -0.5613865             -15.2761
       ...           ...                  ...                  ...
        22        2.0000           -0.2619814              -7.1289
        23        2.0000           -0.2608034              -7.0968
        24        2.0000           -0.2489379              -6.7739
        25        2.0000           -0.2414970              -6.5715
        26        2.0000           -0.2077167              -5.6523
        27        2.0000           -0.1949750              -5.3055
        28        2.0000           -0.1092584              -2.9731 (HOMO)
        29        0.0000           -0.0873479              -2.3769 (LUMO)
        30                         -0.0500783              -1.3627
        31                         -0.0154924              -0.4216
        32                          0.0136006               0.3701
        33                          0.0659146               1.7936
       ...                                ...                  ...
        56                          0.8857976              24.1038
      -------------------------------------------------------------
                  HL-Gap            0.0219104 Eh            0.5962 eV
             Fermi-level           -0.0983031 Eh           -2.6750 eV
 
 localization/xTB-IFF output generation
 averaging CT terms over            1  occ. levels
 averaging CT terms over            1  virt. levels
 dipole moment from electron density (au)
     X       Y       Z   
  -4.2021  -0.4306  -0.5264  total (Debye):   10.820
cpu  time for init local    0.00 s
wall time for init local    0.00 s
 doing rotations ...
 initialization of trafo matrix to unity
iteration     50  convergence  0.65746553D-05

 converged in     55 iterations, threshold :   0.98927610D-06
 doing transformations ...
 lmo centers(Z=2) and atoms on file <lmocent.coord>
 LMO Fii/eV  ncent    charge center   contributions...
    1 sigma -13.48   1.95  -4.41589  -1.79899  -1.03866    7N :  0.57    6N :  0.44
    2 sigma -13.18   1.92  -5.98349  -0.59999  -0.68129    7N :  0.58    8C :  0.43
    3 sigma -12.88   1.97  -6.30287  -2.47231  -1.42537    7N :  0.56   15H :  0.44
    4 sigma -11.48   2.01  -7.58834   1.02716   0.01306   16H :  0.51    8C :  0.49
    5 sigma -10.73   1.99  -3.05687   1.09187   0.32709    9C :  0.52    5C :  0.48
    6 sigma -10.44   2.01  -3.95977   3.08980   1.13903   17H :  0.50    9C :  0.49
    7 sigma -10.12   2.01  -0.81637   0.32824   0.14352    5C :  0.54    4C :  0.46
    8 pi    -10.02   2.16  -5.03008   1.44228  -0.19546    9C :  0.49    8C :  0.47
    9 pi     -9.99   2.17  -5.07789   1.03491   0.73320    9C :  0.49    8C :  0.47
   10 pi     -9.99   2.10  -2.68081  -0.79831  -0.96650    6N :  0.55    5C :  0.41
   11 pi     -9.96   2.11  -2.73964  -1.16193  -0.11730    6N :  0.55    5C :  0.41
   12 pi     -9.83   1.55  -5.41682  -1.33573  -0.74663    7N :  0.79    8C :  0.11
   13 sigma  -9.54   1.91   3.25406   2.78262   1.38670   11S :  0.60   10C :  0.40
   14 sigma  -9.38   1.99   1.41949  -0.38633   0.03075    4C :  0.52    3C :  0.48
   15 sigma  -9.32   1.89   4.96442   1.14588   0.86552   11S :  0.62    2C :  0.39
   16 sigma  -9.30   2.00   0.90123   3.92319   1.65500   18H :  0.52   10C :  0.47
   17 sigma  -9.30   1.99   3.69300  -0.91757  -0.02043    2C :  0.52    3C :  0.48
   18 LP     -8.67   1.11   5.46166   2.37663   4.09226   11S :  0.95
   19 LP     -8.66   1.11   5.76954   4.19551  -0.61838   11S :  0.95
   20 sigma  -8.46   2.02   2.11438  -2.53331  -0.75988   14H :  0.52    3C :  0.48
   21 sigma  -8.46   2.00   7.12027  -3.07244  -0.61701   13H :  0.53    1C :  0.47
   22 sigma  -8.42   1.99   8.35569  -1.20203   0.19456   12H :  0.53    1C :  0.47
   23 LP     -7.97   1.02  -2.32323  -3.53161  -1.62269    6N :  0.99
   24 pi     -7.93   2.14   1.09685   1.87287   0.32855   10C :  0.52    4C :  0.44
   25 pi     -7.91   2.14   1.03525   1.50724   1.29322   10C :  0.53    4C :  0.43
   26 pi     -7.35   1.99   6.08040  -1.37835   0.54291    1C :  0.56    2C :  0.44
   27 pi     -7.33   2.01   6.15060  -0.99108  -0.45654    1C :  0.56    2C :  0.44
   28 delpi  -5.04   2.29   2.51379  -0.69304  -0.03339    3C :  0.63    4C :  0.15    2C :  0.13
 starting deloc pi regularization ...
 thr    2.20000000000000      # pi deloc LMO           6
 files:
 coordprot.0/xtbscreen.xyz/xtblmoinfo/lmocent.coord
 with protonation site input, xtbdock and
 LMO center info written
 

 SCC (total)                   0 d,  0 h,  0 min,  0.033 sec
 SCC setup                      ...        0 min,  0.000 sec (  0.455%)
 Dispersion                     ...        0 min,  0.000 sec (  0.340%)
 classical contributions        ...        0 min,  0.000 sec (  0.102%)
 integral evaluation            ...        0 min,  0.004 sec ( 13.331%)
 iterations                     ...        0 min,  0.004 sec ( 11.805%)
 molecular gradient             ...        0 min,  0.010 sec ( 28.634%)
 printout                       ...        0 min,  0.015 sec ( 45.195%)

         :::::::::::::::::::::::::::::::::::::::::::::::::::::
         ::                     SUMMARY                     ::
         :::::::::::::::::::::::::::::::::::::::::::::::::::::
         :: total energy             -29.924807948901 Eh    ::
         :: gradient norm              0.000686076344 Eh/a0 ::
         :: HOMO-LUMO gap              0.596212992866 eV    ::
         ::.................................................::
         :: SCC energy               -30.369436338030 Eh    ::
         :: -> isotropic ES            0.110070274360 Eh    ::
         :: -> anisotropic ES          0.013549603212 Eh    ::
         :: -> anisotropic XC          0.019693153930 Eh    ::
         :: -> dispersion             -0.018999758499 Eh    ::
         :: repulsion energy           0.444674092924 Eh    ::
         :: add. restraining           0.000000000000 Eh    ::
         :: total charge              -1.000000000000 e     ::
         :::::::::::::::::::::::::::::::::::::::::::::::::::::

           -------------------------------------------------
          |                Property Printout                |
           -------------------------------------------------

    * Orbital Energies and Occupations

         #    Occupation            Energy/Eh            Energy/eV
      -------------------------------------------------------------
         1        2.0000           -0.5613865             -15.2761
       ...           ...                  ...                  ...
        16        2.0000           -0.3229847              -8.7889
        17        2.0000           -0.2965139              -8.0686
        18        2.0000           -0.2958396              -8.0502
        19        2.0000           -0.2751267              -7.4866
        20        2.0000           -0.2711900              -7.3795
        21        2.0000           -0.2659043              -7.2356
        22        2.0000           -0.2619814              -7.1289
        23        2.0000           -0.2608034              -7.0968
        24        2.0000           -0.2489379              -6.7739
        25        2.0000           -0.2414970              -6.5715
        26        2.0000           -0.2077167              -5.6523
        27        2.0000           -0.1949750              -5.3055
        28        2.0000           -0.1092584              -2.9731 (HOMO)
        29        0.0000           -0.0873479              -2.3769 (LUMO)
        30                         -0.0500783              -1.3627
        31                         -0.0154924              -0.4216
        32                          0.0136006               0.3701
        33                          0.0659146               1.7936
        34                          0.0759048               2.0655
        35                          0.1302809               3.5451
        36                          0.1831977               4.9851
        37                          0.2152696               5.8578
        38                          0.2213943               6.0244
        39                          0.2343158               6.3761
       ...                                ...                  ...
        56                          0.8857976              24.1038
      -------------------------------------------------------------
                  HL-Gap            0.0219104 Eh            0.5962 eV
             Fermi-level           -0.0983031 Eh           -2.6750 eV

     #   Z          covCN         q      C6AA      α(0)
     1   6 C        2.875    -0.191    33.030     9.421
     2   6 C        2.960     0.049    26.904     8.508
     3   6 C        3.071    -0.125    31.098     9.144
     4   6 C        3.122    -0.026    28.470     8.738
     5   6 C        3.135     0.072    26.179     8.375
     6   7 N        1.990    -0.256    27.472     7.773
     7   7 N        2.980    -0.024    21.714     6.921
     8   6 C        2.987    -0.016    28.399     8.742
     9   6 C        3.025    -0.081    29.987     8.982
    10   6 C        2.926    -0.063    29.574     8.918
    11  16 S        2.275    -0.308   154.408    20.914
    12   1 H        0.926    -0.043     3.913     3.093
    13   1 H        0.926    -0.047     4.015     3.133
    14   1 H        0.926    -0.029     3.615     2.973
    15   1 H        0.860     0.130     1.549     1.950
    16   1 H        0.926    -0.007     3.180     2.789
    17   1 H        0.926     0.003     3.006     2.711
    18   1 H        0.926    -0.037     3.797     3.047

 Mol. C6AA /au·bohr⁶  :       6091.412082
 Mol. C8AA /au·bohr⁸  :     167450.043094
 Mol. α(0) /au        :        126.132993


Wiberg/Mayer (AO) data.
largest (>0.10) Wiberg bond orders for each atom

 ---------------------------------------------------------------------------
     #   Z sym  total        # sym  WBO       # sym  WBO       # sym  WBO
 ---------------------------------------------------------------------------
     1   6 C    3.863 --     2 C    1.571    12 H    0.980    13 H    0.972
                             3 C    0.111
     2   6 C    3.931 --     1 C    1.571     3 C    1.285    11 S    1.004
     3   6 C    3.921 --     4 C    1.314     2 C    1.285    14 H    0.965
                            10 C    0.149     1 C    0.111
     4   6 C    3.976 --    10 C    1.433     3 C    1.314     5 C    1.088
     5   6 C    3.967 --     6 N    1.461     9 C    1.269     4 C    1.088
     6   7 N    2.938 --     5 C    1.461     7 N    1.172     8 C    0.161
     7   7 N    3.574 --     8 C    1.243     6 N    1.172    15 H    0.953
     8   6 C    3.949 --     9 C    1.555     7 N    1.243    16 H    0.969
                             6 N    0.161
     9   6 C    3.973 --     8 C    1.555     5 C    1.269    17 H    0.974
    10   6 C    3.860 --     4 C    1.433    11 S    1.075    18 H    0.971
                             3 C    0.149
    11  16 S    2.354 --    10 C    1.075     2 C    1.004
    12   1 H    0.998 --     1 C    0.980
    13   1 H    0.997 --     1 C    0.972
    14   1 H    0.999 --     3 C    0.965
    15   1 H    0.983 --     7 N    0.953
    16   1 H    0.999 --     8 C    0.969
    17   1 H    1.000 --     9 C    0.974
    18   1 H    0.998 --    10 C    0.971
 ---------------------------------------------------------------------------

Topologies differ in total number of bonds
Writing topology from bond orders to xtbtopo.mol

molecular dipole:
                 x           y           z       tot (Debye)
 q only:       -3.440      -0.380      -0.461
   full:       -4.202      -0.431      -0.526      10.820
molecular quadrupole (traceless):
                xx          xy          yy          xz          yz          zz
 q only:      -18.881       2.533       6.165      -1.620      -2.931      12.716
  q+dip:      -15.150      -0.471       5.659      -2.375      -1.954       9.491
   full:      -15.711      -0.559       5.097      -2.552      -2.825      10.615

           -------------------------------------------------
          |                Geometry Summary                 |
           -------------------------------------------------

      molecular mass/u    :      163.2196663
   center of mass at/Å    :        0.2668678       0.1967722       0.1332818
  moments of inertia/u·Å² :        0.1745536E+03   0.9330843E+03   0.1107529E+04
rotational constants/cm⁻¹ :        0.9657567E-01   0.1806657E-01   0.1522094E-01

 * 18 selected distances

     #   Z          #   Z                                           value/Å
     1   6 C        2   6 C                                       1.3580282
     2   6 C        3   6 C                                       1.4061434
     3   6 C        4   6 C                                       1.4010855
     4   6 C        5   6 C                                       1.4436360
     5   6 C        6   7 N                                       1.3283239
     6   7 N        7   7 N                                       1.3418681
     7   7 N        8   6 C                                       1.3546497
     5   6 C        9   6 C                                       1.4228840
     8   6 C        9   6 C                                       1.3666396
     4   6 C       10   6 C                                       1.3794694
    10   6 C       11  16 S                                       1.7516600 (max)
     1   6 C       12   1 H                                       1.0765166
     1   6 C       13   1 H                                       1.0785315
     3   6 C       14   1 H                                       1.0763018
     7   7 N       15   1 H                                       1.0066245 (min)
     8   6 C       16   1 H                                       1.0744639
     9   6 C       17   1 H                                       1.0709927
    10   6 C       18   1 H                                       1.0716068

 * 6 distinct bonds (by element types)

   Z      Z             #   av. dist./Å        max./Å        min./Å
   1 H    6 C           6     1.0747355     1.0785315     1.0709927
   6 C    6 C           7     1.3968409     1.4436360     1.3580282
   1 H    7 N           1     1.0066245     1.0066245     1.0066245
   6 C    7 N           2     1.3414868     1.3546497     1.3283239
   7 N    7 N           1     1.3418681     1.3418681     1.3418681
   6 C   16 S           1     1.7516600     1.7516600     1.7516600


optimized geometry written to: xtbopt.xyz


           -------------------------------------------------
          | TOTAL ENERGY              -29.924807948901 Eh   |
          | GRADIENT NORM               0.000686076344 Eh/α |
          | HOMO-LUMO GAP               0.596212992866 eV   |
           -------------------------------------------------

------------------------------------------------------------------------
 * finished run on 2022/11/02 at 18:13:42.630     
------------------------------------------------------------------------
 total:
 * wall-time:     0 d,  0 h,  0 min,  0.299 sec
 *  cpu-time:     0 d,  0 h,  0 min,  0.256 sec
 * ratio c/w:     0.854 speedup
 SCF:
 * wall-time:     0 d,  0 h,  0 min,  0.055 sec
 *  cpu-time:     0 d,  0 h,  0 min,  0.048 sec
 * ratio c/w:     0.872 speedup
 ANC optimizer:
 * wall-time:     0 d,  0 h,  0 min,  0.182 sec
 *  cpu-time:     0 d,  0 h,  0 min,  0.175 sec
 * ratio c/w:     0.961 speedup

