18
 energy: -29.924807948901 gnorm: 0.000686076344 xtb: 6.4.1 (afa7bdf)
C         3.77023666985907   -0.94041949958294   -0.06090007634250
C         2.59736341529708   -0.27825445220264    0.11272707999621
C         1.27348516884837   -0.68094668624361   -0.13712221822295
C         0.30119068274149    0.28034299021354    0.16882881786376
C        -1.11639617785782    0.07475296955027   -0.01079595955986
N        -1.63132975131768   -1.03675089282650   -0.52445636555364
N        -2.96183161689055   -0.86274088869747   -0.53422288360755
C        -3.32115741811541    0.34424174227337   -0.03506999439588
C        -2.16373527571112    0.98130279714842    0.31454548514101
C         0.81367260609441    1.45990858889449    0.66775085853631
S         2.56163194743452    1.38953098519789    0.75718237936630
H         4.72145548478363   -0.49665392327158    0.17814550409582
H         3.77272464556435   -1.94622623561643   -0.45022878471461
H         1.03649432968557   -1.65490446242725   -0.52912618481283
H        -3.55871693043074   -1.59176372393953   -0.88854843830262
H        -4.35211094573535    0.64036994719642    0.02750539423794
H        -2.06258996592525    1.95683481226408    0.74481546698699
H         0.31961513167542    2.36137293206954    0.97042291928807
