      -----------------------------------------------------------      
     |                   =====================                   |     
     |                           x T B                           |     
     |                   =====================                   |     
     |                         S. Grimme                         |     
     |          Mulliken Center for Theoretical Chemistry        |     
     |                    University of Bonn                     |     
      -----------------------------------------------------------      

   * xtb version 6.4.1 (afa7bdf) compiled by 'ehlert@majestix' on 2021-06-10

   xtb is free software: you can redistribute it and/or modify it under
   the terms of the GNU Lesser General Public License as published by
   the Free Software Foundation, either version 3 of the License, or
   (at your option) any later version.
   
   xtb is distributed in the hope that it will be useful,
   but WITHOUT ANY WARRANTY; without even the implied warranty of
   MERCHANTABILITY or FITNESS FOR A PARTICULAR PURPOSE.  See the
   GNU Lesser General Public License for more details.
   
   Cite this work as:
   * C. Bannwarth, E. Caldeweyher, S. Ehlert, A. Hansen, P. Pracht,
     J. Seibert, S. Spicher, S. Grimme, WIREs Comput. Mol. Sci., 2020, 11,
     e01493. DOI: 10.1002/wcms.1493
   
   for GFN2-xTB:
   * C. Bannwarth, S. Ehlert and S. Grimme., J. Chem. Theory Comput., 2019,
     15, 1652-1671. DOI: 10.1021/acs.jctc.8b01176
   for GFN1-xTB:
   * S. Grimme, C. Bannwarth, P. Shushkov, J. Chem. Theory Comput., 2017,
     13, 1989-2009. DOI: 10.1021/acs.jctc.7b00118
   for GFN0-xTB:
   * P. Pracht, E. Caldeweyher, S. Ehlert, S. Grimme, ChemRxiv, 2019, preprint.
     DOI: 10.26434/chemrxiv.8326202.v1
   for GFN-FF:
   * S. Spicher and S. Grimme, Angew. Chem. Int. Ed., 2020, 59, 15665-15673.
     DOI: 10.1002/anie.202004239
   
   for DFT-D4:
   * E. Caldeweyher, C. Bannwarth and S. Grimme, J. Chem. Phys., 2017,
     147, 034112. DOI: 10.1063/1.4993215
   * E. Caldeweyher, S. Ehlert, A. Hansen, H. Neugebauer, S. Spicher,
     C. Bannwarth and S. Grimme, J. Chem. Phys., 2019, 150, 154122.
     DOI: 10.1063/1.5090222
   * E. Caldeweyher, J.-M. Mewes, S. Ehlert and S. Grimme, Phys. Chem. Chem. Phys.
     2020, 22, 8499-8512. DOI: 10.1039/D0CP00502A
   
   for sTDA-xTB:
   * S. Grimme and C. Bannwarth, J. Chem. Phys., 2016, 145, 054103.
     DOI: 10.1063/1.4959605
   
   in the mass-spec context:
   * V. Asgeirsson, C. Bauer and S. Grimme, Chem. Sci., 2017, 8, 4879.
     DOI: 10.1039/c7sc00601b
   * J. Koopman and S. Grimme, ACS Omega 2019, 4, 12, 15120-15133.
     DOI: 10.1021/acsomega.9b02011
   
   for metadynamics refer to:
   * S. Grimme, J. Chem. Theory Comput., 2019, 155, 2847-2862
     DOI: 10.1021/acs.jctc.9b00143
   
   for SPH calculations refer to:
   * S. Spicher and S. Grimme, J. Chem. Theory Comput., 2021, 17, 1701-1714
     DOI: 10.1021/acs.jctc.0c01306
   
   with help from (in alphabetical order)
   P. Atkinson, C. Bannwarth, F. Bohle, G. Brandenburg, E. Caldeweyher
   M. Checinski, S. Dohm, S. Ehlert, S. Ehrlich, I. Gerasimov, J. Koopman
   C. Lavigne, S. Lehtola, F. März, M. Müller, F. Musil, H. Neugebauer
   J. Pisarek, C. Plett, P. Pracht, J. Seibert, P. Shushkov, S. Spicher
   M. Stahn, M. Steiner, T. Strunk, J. Stückrath, T. Rose, and J. Unsleber
   
 * started run on 2022/11/02 at 18:13:38.963     

           -------------------------------------------------
          |                Calculation Setup                |
           -------------------------------------------------

          program call               : /lustre/hpc/kemi/borup/pKalculator/dep/xtb-6.4.1/bin/xtb --gfn 2 /lustre/hpc/kemi/borup/pKalculator/calc/test#-1=11/conf07/test#-1=11_conf07_gfn2.xyz --opt --lmo --chrg -1 --uhf 0
          hostname                   : fend01.cluster
          coordinate file            : /lustre/hpc/kemi/borup/pKalculator/calc/test#-1=11/conf07/test#-1=11_conf07_gfn2.xyz
          omp threads                :                     1
          number of atoms            :                    18
          number of electrons        :                    56
          charge                     :                    -1
          spin                       :                   0.0
          first test random number   :      0.01504949027635

   ID    Z sym.   atoms
    1    6 C      1-5, 8-10
    2    7 N      6, 7
    3   16 S      11
    4    1 H      12-18

           -------------------------------------------------
          |                 G F N 2 - x T B                 |
           -------------------------------------------------

        Reference                      10.1021/acs.jctc.8b01176
      * Hamiltonian:
        H0-scaling (s, p, d)           1.850000    2.230000    2.230000
        zeta-weighting                 0.500000
      * Dispersion:
        s8                             2.700000
        a1                             0.520000
        a2                             5.000000
        s9                             5.000000
      * Repulsion:
        kExp                           1.500000    1.000000
        rExp                           1.000000
      * Coulomb:
        alpha                          2.000000
        third order                    shell-resolved
        anisotropic                    true
        a3                             3.000000
        a5                             4.000000
        cn-shift                       1.200000
        cn-exp                         4.000000
        max-rad                        5.000000


          ...................................................
          :                      SETUP                      :
          :.................................................:
          :  # basis functions                  57          :
          :  # atomic orbitals                  56          :
          :  # shells                           30          :
          :  # electrons                        56          :
          :  max. iterations                   250          :
          :  Hamiltonian                  GFN2-xTB          :
          :  restarted?                      false          :
          :  GBSA solvation                  false          :
          :  PC potential                    false          :
          :  electronic temp.          300.0000000     K    :
          :  accuracy                    1.0000000          :
          :  -> integral cutoff          0.2500000E+02      :
          :  -> integral neglect         0.1000000E-07      :
          :  -> SCF convergence          0.1000000E-05 Eh   :
          :  -> wf. convergence          0.1000000E-03 e    :
          :  Broyden damping             0.4000000          :
          ...................................................

 iter      E             dE          RMSdq      gap      omega  full diag
   1    -30.1636143 -0.301636E+02  0.451E+00    2.95       0.0  T
   2    -29.0440065  0.111961E+01  0.644E+00    0.47       1.0  T
   3    -30.2120706 -0.116806E+01  0.296E+00    3.36       1.0  T
   4    -30.2636085 -0.515379E-01  0.186E+00    2.42       1.0  T
   5    -30.2798231 -0.162147E-01  0.135E+00    2.09       1.0  T
   6    -30.2936529 -0.138298E-01  0.984E-01    1.52       1.0  T
   7    -30.3013105 -0.765762E-02  0.693E-01    1.07       1.0  T
   8    -30.3064644 -0.515383E-02  0.383E-01    0.64       1.0  T
   9    -30.3084710 -0.200662E-02  0.182E-01    0.34       1.0  T
  10    -30.3086137 -0.142772E-03  0.103E-01    0.19       1.0  T
  11    -30.3086461 -0.323344E-04  0.109E-01    0.32       1.0  T
  12    -30.3088078 -0.161771E-03  0.743E-02    0.29       1.0  T
  13    -30.3089442 -0.136395E-03  0.106E-02    0.24       2.2  T
  14    -30.3089223  0.219212E-04  0.285E-02    0.22       1.0  T
  15    -30.3089453 -0.229862E-04  0.608E-03    0.24       3.9  T
  16    -30.3089460 -0.667209E-06  0.346E-03    0.24       6.8  T
  17    -30.3089463 -0.330800E-06  0.544E-04    0.24      43.3  T
  18    -30.3089463 -0.533610E-08  0.288E-04    0.24      81.8  T

   *** convergence criteria satisfied after 18 iterations ***

         #    Occupation            Energy/Eh            Energy/eV
      -------------------------------------------------------------
         1        2.0000           -0.5896674             -16.0457
       ...           ...                  ...                  ...
        22        2.0000           -0.2577387              -7.0134
        23        2.0000           -0.2487823              -6.7697
        24        2.0000           -0.2457973              -6.6885
        25        2.0000           -0.1884992              -5.1293
        26        2.0000           -0.1828370              -4.9752
        27        2.0000           -0.1647806              -4.4839
        28        1.9801           -0.1088824              -2.9628 (HOMO)
        29        0.0199           -0.1001456              -2.7251 (LUMO)
        30                         -0.0708637              -1.9283
        31                         -0.0419512              -1.1416
        32                          0.0077752               0.2116
        33                          0.0409513               1.1143
       ...                                ...                  ...
        56                          0.8915104              24.2592
      -------------------------------------------------------------
                  HL-Gap            0.0087367 Eh            0.2377 eV
             Fermi-level           -0.1045140 Eh           -2.8440 eV
 
 localization/xTB-IFF output generation
 averaging CT terms over            1  occ. levels
 averaging CT terms over            1  virt. levels
 dipole moment from electron density (au)
     X       Y       Z   
   3.2515  -0.3832   0.2980  total (Debye):    8.356
cpu  time for init local    0.01 s
wall time for init local    0.01 s
 doing rotations ...
 initialization of trafo matrix to unity
iteration     50  convergence  0.19118631D-04

 converged in     65 iterations, threshold :   0.99746729D-06
 doing transformations ...
 lmo centers(Z=2) and atoms on file <lmocent.coord>
 LMO Fii/eV  ncent    charge center   contributions...
    1 sigma -11.60   1.97   5.18736  -0.60092   0.48746    1C :  0.52    2C :  0.49
    2 sigma -11.36   1.94   3.92220  -0.90362  -1.87433   11S :  0.58    2C :  0.42
    3 sigma -11.21   2.00   6.35228  -1.66618   2.07263    1C :  0.51   13H :  0.49
    4 sigma -11.20   1.99   6.48478   0.53131   1.92826    1C :  0.51   12H :  0.49
    5 sigma -11.15   1.97   7.41595  -0.73396   0.37652    1C :  0.51   14H :  0.50
    6 sigma -11.13   1.90   2.12725  -0.99325  -3.52333   11S :  0.61   10C :  0.39
    7 sigma -11.02   1.97  -6.01348   0.55214  -1.32447    7N :  0.53    6N :  0.47
    8 sigma -10.56   2.00   0.59438  -0.09039  -0.03975    3C :  0.51    4C :  0.48
    9 LP    -10.41   1.14   4.64218   1.00736  -4.49056   11S :  0.93
   10 LP    -10.38   1.15   3.99495  -3.77635  -3.52734   11S :  0.93
   11 sigma -10.24   1.99  -8.12199   0.88786  -1.10304    7N :  0.53   16H :  0.47
   12 sigma -10.21   2.02   1.47770   0.21840   2.09562    3C :  0.50   15H :  0.50
   13 sigma -10.19   2.01  -0.33654  -0.85043  -4.47033   10C :  0.50   18H :  0.49
   14 pi     -9.74   2.11   2.82871   0.18412   0.12850    2C :  0.49    3C :  0.48
   15 pi     -9.74   2.11   2.69205  -0.83538   0.33312    2C :  0.49    3C :  0.48
   16 sigma  -9.62   2.03  -1.64180   0.07344  -0.73523    4C :  0.54    5C :  0.44
   17 sigma  -9.40   1.83  -6.83259   1.01555   0.45007    7N :  0.65    8C :  0.36
   18 pi     -9.18   2.17   0.17448   0.05290  -2.26295   10C :  0.51    4C :  0.45
   19 pi     -9.18   2.17   0.03799  -0.95004  -2.06354   10C :  0.51    4C :  0.45
   20 sigma  -8.38   2.00  -3.38188   0.62774   0.86156    5C :  0.53    9C :  0.46
   21 sigma  -8.22   1.99  -3.23637   1.09142   3.30964   17H :  0.55    9C :  0.45
   22 pi     -8.21   2.15  -4.07595  -0.15663  -1.15418    6N :  0.52    5C :  0.44
   23 pi     -8.21   2.15  -3.95108   0.75158  -1.33326    6N :  0.52    5C :  0.44
   24 pi     -7.06   1.57  -6.56357   0.78811  -0.55738    7N :  0.79    6N :  0.10    8C :  0.08
   25 delpi  -6.57   2.27  -4.86018   1.48618   1.68740    9C :  0.55    8C :  0.37
   26 delpi  -6.57   2.26  -4.98562   0.55313   1.86886    9C :  0.55    8C :  0.37
   27 LP     -6.31   1.02  -5.04998  -0.07184  -3.83215    6N :  0.99
   28 LP     -4.30   1.07  -7.67306   1.65252   3.07552    8C :  0.97
 starting deloc pi regularization ...
 thr    2.20000000000000      # pi deloc LMO           5
 files:
 coordprot.0/xtbscreen.xyz/xtblmoinfo/lmocent.coord
 with protonation site input, xtbdock and
 LMO center info written
 

 SCC (total)                   0 d,  0 h,  0 min,  0.072 sec
 SCC setup                      ...        0 min,  0.000 sec (  0.526%)
 Dispersion                     ...        0 min,  0.000 sec (  0.364%)
 classical contributions        ...        0 min,  0.000 sec (  0.095%)
 integral evaluation            ...        0 min,  0.006 sec (  8.364%)
 iterations                     ...        0 min,  0.030 sec ( 41.070%)
 molecular gradient             ...        0 min,  0.014 sec ( 19.913%)
 printout                       ...        0 min,  0.021 sec ( 29.565%)

         :::::::::::::::::::::::::::::::::::::::::::::::::::::
         ::                     SUMMARY                     ::
         :::::::::::::::::::::::::::::::::::::::::::::::::::::
         :: total energy             -29.888594866663 Eh    ::
         :: gradient norm              0.115764338428 Eh/a0 ::
         :: HOMO-LUMO gap              0.237737804102 eV    ::
         ::.................................................::
         :: SCC energy               -30.308946311713 Eh    ::
         :: -> isotropic ES            0.122481275319 Eh    ::
         :: -> anisotropic ES          0.003661700445 Eh    ::
         :: -> anisotropic XC          0.017611212468 Eh    ::
         :: -> dispersion             -0.018560080881 Eh    ::
         :: repulsion energy           0.420369567076 Eh    ::
         :: add. restraining           0.000000000000 Eh    ::
         :: total charge              -1.000000000000 e     ::
         :::::::::::::::::::::::::::::::::::::::::::::::::::::

      ----------------------------------------------------------- 
     |                   =====================                   |
     |                        A N C O P T                        |
     |                   =====================                   |
     |               Approximate Normal Coordinate               |
     |                Rational Function Optimizer                |
      ----------------------------------------------------------- 

          ...................................................
          :                      SETUP                      :
          :.................................................:
          :   optimization level            normal          :
          :   max. optcycles                   200          :
          :   ANC micro-cycles                  20          :
          :   degrees of freedom                48          :
          :.................................................:
          :   RF solver                   davidson          :
          :   write xtbopt.log                true          :
          :   linear?                        false          :
          :   energy convergence         0.5000000E-05 Eh   :
          :   grad. convergence          0.1000000E-02 Eh/α :
          :   maximium RF displ.         1.0000000          :
          :   Hlow (freq-cutoff)         0.1000000E-01      :
          :   Hmax (freq-cutoff)         5.0000000          :
          :   S6 in model hess.         20.0000000          :
          ...................................................

generating ANC from model Hessian ...
Using Lindh-Hessian (1995)
 Shifting diagonal of input Hessian by   8.273499826148386E-003
 Lowest  eigenvalues of input Hessian
    0.000000    0.000000    0.000000    0.000000    0.000000    0.000000
    0.010000    0.011885    0.013076    0.015820    0.020741    0.025172
    0.030758    0.040469    0.042839    0.044703    0.053177    0.054520
 Highest eigenvalues
    1.631245    1.792779    1.847239    1.903651    1.936785    2.028146
 

........................................................................
.............................. CYCLE    1 ..............................
........................................................................
   1    -30.3089463 -0.303089E+02  0.376E-05    0.24       0.0  T
   2    -30.3089463  0.236085E-09  0.871E-05    0.24     270.6  T
   3    -30.3089463 -0.272191E-09  0.108E-05    0.24    2190.8  T
     SCC iter.                  ...        0 min,  0.006 sec
     gradient                   ...        0 min,  0.016 sec
 * total energy  :   -29.8885949 Eh     change       -0.2285560E-08 Eh
   gradient norm :     0.1157679 Eh/α   predicted     0.0000000E+00 (-100.00%)
   displ. norm   :     0.1859595 α      lambda       -0.1248522E-01
   maximum displ.:     0.0840311 α      in ANC's #10, #22, #20, ...

........................................................................
.............................. CYCLE    2 ..............................
........................................................................
   1    -30.3126533 -0.303127E+02  0.314E-01    0.49       0.0  T
   2    -30.3128881 -0.234786E-03  0.187E-01    0.37       1.0  T
   3    -30.3128889 -0.785521E-06  0.967E-02    0.40       1.0  T
   4    -30.3129472 -0.582999E-04  0.334E-02    0.39       1.0  T
   5    -30.3129514 -0.427157E-05  0.186E-02    0.39       1.3  T
   6    -30.3129533 -0.186220E-05  0.102E-02    0.39       2.3  T
   7    -30.3129538 -0.464864E-06  0.471E-03    0.39       5.0  T
   8    -30.3129539 -0.156699E-06  0.180E-03    0.39      13.1  T
   9    -30.3129539 -0.187432E-07  0.801E-04    0.39      29.4  T
  10    -30.3129539 -0.354669E-08  0.230E-04    0.39     102.4  T
     SCC iter.                  ...        0 min,  0.017 sec
     gradient                   ...        0 min,  0.012 sec
 * total energy  :   -29.8970829 Eh     change       -0.8488023E-02 Eh
   gradient norm :     0.0461386 Eh/α   predicted    -0.6458486E-02 ( -23.91%)
   displ. norm   :     0.1601530 α      lambda       -0.3356934E-02
   maximum displ.:     0.0787855 α      in ANC's #10, #3, #7, ...

........................................................................
.............................. CYCLE    3 ..............................
........................................................................
   1    -30.3146194 -0.303146E+02  0.206E-01    0.55       0.0  T
   2    -30.3146787 -0.593094E-04  0.110E-01    0.57       1.0  T
   3    -30.3146748  0.385551E-05  0.786E-02    0.53       1.0  T
   4    -30.3147176 -0.427766E-04  0.241E-02    0.56       1.0  T
   5    -30.3147229 -0.524419E-05  0.121E-02    0.55       1.9  T
   6    -30.3147234 -0.596500E-06  0.616E-03    0.55       3.8  T
   7    -30.3147236 -0.198841E-06  0.261E-03    0.55       9.0  T
   8    -30.3147237 -0.337639E-07  0.102E-03    0.55      23.2  T
   9    -30.3147237 -0.296279E-08  0.491E-04    0.55      48.0  T
  10    -30.3147237 -0.202506E-08  0.174E-04    0.55     135.2  T
     SCC iter.                  ...        0 min,  0.012 sec
     gradient                   ...        0 min,  0.010 sec
 * total energy  :   -29.8989860 Eh     change       -0.1903141E-02 Eh
   gradient norm :     0.0117904 Eh/α   predicted    -0.1721520E-02 (  -9.54%)
   displ. norm   :     0.0923666 α      lambda       -0.2744199E-03
   maximum displ.:     0.0802256 α      in ANC's #3, #7, #12, ...

........................................................................
.............................. CYCLE    4 ..............................
........................................................................
   1    -30.3140029 -0.303140E+02  0.569E-02    0.57       0.0  T
   2    -30.3140083 -0.534705E-05  0.302E-02    0.58       1.0  T
   3    -30.3140078  0.487532E-06  0.186E-02    0.57       1.3  T
   4    -30.3140107 -0.292916E-05  0.483E-03    0.57       4.9  T
   5    -30.3140109 -0.132317E-06  0.194E-03    0.57      12.1  T
   6    -30.3140109  0.243428E-08  0.129E-03    0.57      18.3  T
   7    -30.3140109 -0.191717E-07  0.422E-04    0.57      55.8  T
   8    -30.3140109 -0.274294E-09  0.261E-04    0.57      90.3  T
     SCC iter.                  ...        0 min,  0.009 sec
     gradient                   ...        0 min,  0.010 sec
 * total energy  :   -29.8991820 Eh     change       -0.1959415E-03 Eh
   gradient norm :     0.0060778 Eh/α   predicted    -0.1383791E-03 ( -29.38%)
   displ. norm   :     0.1184748 α      lambda       -0.1575685E-03
   maximum displ.:     0.1110576 α      in ANC's #3, #7, #12, ...

........................................................................
.............................. CYCLE    5 ..............................
........................................................................
   1    -30.3135201 -0.303135E+02  0.510E-02    0.57       0.0  T
   2    -30.3135252 -0.509162E-05  0.299E-02    0.57       1.0  T
   3    -30.3135247  0.526970E-06  0.174E-02    0.57       1.4  T
   4    -30.3135274 -0.271591E-05  0.690E-03    0.57       3.4  T
   5    -30.3135278 -0.365035E-06  0.261E-03    0.57       9.0  T
   6    -30.3135279 -0.707254E-07  0.104E-03    0.57      22.6  T
   7    -30.3135279 -0.406715E-08  0.419E-04    0.57      56.2  T
   8    -30.3135279 -0.102335E-08  0.224E-04    0.57     105.3  T
     SCC iter.                  ...        0 min,  0.009 sec
     gradient                   ...        0 min,  0.010 sec
 * total energy  :   -29.8992795 Eh     change       -0.9753307E-04 Eh
   gradient norm :     0.0033822 Eh/α   predicted    -0.7989063E-04 ( -18.09%)
   displ. norm   :     0.0531596 α      lambda       -0.3160003E-04
   maximum displ.:     0.0509267 α      in ANC's #3, #4, #5, ...

........................................................................
.............................. CYCLE    6 ..............................
........................................................................
   1    -30.3138621 -0.303139E+02  0.171E-02    0.56       0.0  T
   2    -30.3138624 -0.328557E-06  0.105E-02    0.56       2.3  T
   3    -30.3138622  0.236642E-06  0.748E-03    0.56       3.2  T
   4    -30.3138628 -0.592969E-06  0.191E-03    0.56      12.3  T
   5    -30.3138628 -0.220944E-07  0.847E-04    0.56      27.8  T
   6    -30.3138628 -0.383223E-08  0.471E-04    0.56      50.0  T
     SCC iter.                  ...        0 min,  0.007 sec
     gradient                   ...        0 min,  0.009 sec
 * total energy  :   -29.8993036 Eh     change       -0.2408391E-04 Eh
   gradient norm :     0.0022431 Eh/α   predicted    -0.1584412E-04 ( -34.21%)
   displ. norm   :     0.0436717 α      lambda       -0.1974807E-04
   maximum displ.:     0.0396323 α      in ANC's #3, #4, #5, ...

........................................................................
.............................. CYCLE    7 ..............................
........................................................................
   1    -30.3143232 -0.303143E+02  0.140E-02    0.56       0.0  T
   2    -30.3143232 -0.455207E-07  0.829E-03    0.55       2.8  T
   3    -30.3143229  0.358705E-06  0.688E-03    0.56       3.4  T
   4    -30.3143234 -0.571132E-06  0.103E-03    0.56      22.8  T
   5    -30.3143234 -0.667779E-08  0.561E-04    0.56      42.0  T
   6    -30.3143234 -0.155851E-08  0.270E-04    0.56      87.1  T
     SCC iter.                  ...        0 min,  0.007 sec
     gradient                   ...        0 min,  0.009 sec
 * total energy  :   -29.8993183 Eh     change       -0.1475155E-04 Eh
   gradient norm :     0.0011216 Eh/α   predicted    -0.9892275E-05 ( -32.94%)
   displ. norm   :     0.0606442 α      lambda       -0.1061907E-04
   maximum displ.:     0.0508717 α      in ANC's #3, #4, #5, ...

........................................................................
.............................. CYCLE    8 ..............................
........................................................................
   1    -30.3145555 -0.303146E+02  0.198E-02    0.55       0.0  T
   2    -30.3145557 -0.193853E-06  0.117E-02    0.55       2.0  T
   3    -30.3145552  0.488307E-06  0.889E-03    0.55       2.7  T
   4    -30.3145561 -0.824854E-06  0.183E-03    0.55      12.9  T
   5    -30.3145561 -0.407155E-07  0.614E-04    0.55      38.4  T
   6    -30.3145561 -0.121302E-08  0.270E-04    0.55      87.4  T
     SCC iter.                  ...        0 min,  0.007 sec
     gradient                   ...        0 min,  0.010 sec
 * total energy  :   -29.8993287 Eh     change       -0.1033993E-04 Eh
   gradient norm :     0.0013094 Eh/α   predicted    -0.5319615E-05 ( -48.55%)
   displ. norm   :     0.0430179 α      lambda       -0.4854050E-05
   maximum displ.:     0.0307016 α      in ANC's #3, #4, #5, ...

........................................................................
.............................. CYCLE    9 ..............................
........................................................................
   1    -30.3143581 -0.303144E+02  0.139E-02    0.55       0.0  T
   2    -30.3143582 -0.726701E-07  0.845E-03    0.55       2.8  T
   3    -30.3143579  0.274202E-06  0.620E-03    0.55       3.8  T
   4    -30.3143583 -0.427869E-06  0.118E-03    0.55      19.9  T
   5    -30.3143583 -0.132018E-07  0.479E-04    0.55      49.2  T
   6    -30.3143583 -0.745715E-09  0.212E-04    0.55     111.0  T
     SCC iter.                  ...        0 min,  0.007 sec
     gradient                   ...        0 min,  0.010 sec
 * total energy  :   -29.8993344 Eh     change       -0.5689824E-05 Eh
   gradient norm :     0.0009237 Eh/α   predicted    -0.2428261E-05 ( -57.32%)
   displ. norm   :     0.0756160 α      lambda       -0.6430741E-05
   maximum displ.:     0.0436097 α      in ANC's #4, #3, #5, ...

........................................................................
.............................. CYCLE   10 ..............................
........................................................................
   1    -30.3140715 -0.303141E+02  0.235E-02    0.56       0.0  T
   2    -30.3140716 -0.771044E-07  0.143E-02    0.55       1.6  T
   3    -30.3140704  0.119874E-05  0.105E-02    0.56       2.3  T
   4    -30.3140719 -0.155474E-05  0.141E-03    0.55      16.7  T
   5    -30.3140719 -0.846315E-08  0.820E-04    0.55      28.8  T
   6    -30.3140719 -0.487895E-08  0.282E-04    0.55      83.5  T
     SCC iter.                  ...        0 min,  0.007 sec
     gradient                   ...        0 min,  0.010 sec
 * total energy  :   -29.8993411 Eh     change       -0.6690772E-05 Eh
   gradient norm :     0.0006691 Eh/α   predicted    -0.3222218E-05 ( -51.84%)
   displ. norm   :     0.0798851 α      lambda       -0.5642245E-05
   maximum displ.:     0.0518408 α      in ANC's #4, #5, #2, ...

........................................................................
.............................. CYCLE   11 ..............................
........................................................................
   1    -30.3138732 -0.303139E+02  0.237E-02    0.56       0.0  T
   2    -30.3138733 -0.649884E-07  0.142E-02    0.56       1.7  T
   3    -30.3138722  0.107090E-05  0.863E-03    0.56       2.7  T
   4    -30.3138734 -0.123094E-05  0.130E-03    0.56      18.2  T
   5    -30.3138734 -0.626148E-08  0.754E-04    0.56      31.3  T
   6    -30.3138734 -0.454791E-08  0.220E-04    0.56     107.1  T
     SCC iter.                  ...        0 min,  0.007 sec
     gradient                   ...        0 min,  0.010 sec
 * total energy  :   -29.8993482 Eh     change       -0.7093229E-05 Eh
   gradient norm :     0.0011415 Eh/α   predicted    -0.2828795E-05 ( -60.12%)
   displ. norm   :     0.2600673 α      lambda       -0.1992606E-04
   maximum displ.:     0.1749410 α      in ANC's #4, #5, #2, ...

........................................................................
.............................. CYCLE   12 ..............................
........................................................................
   1    -30.3124350 -0.303124E+02  0.759E-02    0.56       0.0  T
   2    -30.3124360 -0.920625E-06  0.448E-02    0.56       1.0  T
   3    -30.3124297  0.628052E-05  0.203E-02    0.56       1.2  T
   4    -30.3124367 -0.701007E-05  0.429E-03    0.56       5.5  T
   5    -30.3124368 -0.110659E-06  0.213E-03    0.56      11.1  T
   6    -30.3124368 -0.301257E-07  0.742E-04    0.56      31.8  T
   7    -30.3124368 -0.469160E-08  0.296E-04    0.56      79.5  T
     SCC iter.                  ...        0 min,  0.008 sec
     gradient                   ...        0 min,  0.010 sec
 * total energy  :   -29.8993544 Eh     change       -0.6203615E-05 Eh
   gradient norm :     0.0049908 Eh/α   predicted    -0.1026256E-04 (  65.43%)
   displ. norm   :     0.0510205 α      lambda       -0.3287252E-04
   maximum displ.:     0.0296502 α      in ANC's #3, #4, #5, ...

........................................................................
.............................. CYCLE   13 ..............................
........................................................................
   1    -30.3134339 -0.303134E+02  0.185E-02    0.56       0.0  T
   2    -30.3134341 -0.231842E-06  0.108E-02    0.56       2.2  T
   3    -30.3134336  0.554358E-06  0.735E-03    0.56       3.2  T
   4    -30.3134343 -0.698786E-06  0.158E-03    0.56      14.9  T
   5    -30.3134343 -0.189934E-07  0.556E-04    0.56      42.4  T
   6    -30.3134343 -0.521311E-09  0.348E-04    0.56      67.7  T
     SCC iter.                  ...        0 min,  0.007 sec
     gradient                   ...        0 min,  0.010 sec
 * total energy  :   -29.8993758 Eh     change       -0.2142310E-04 Eh
   gradient norm :     0.0030259 Eh/α   predicted    -0.1647773E-04 ( -23.08%)
   displ. norm   :     0.0810221 α      lambda       -0.2848951E-04
   maximum displ.:     0.0522683 α      in ANC's #4, #5, #2, ...

........................................................................
.............................. CYCLE   14 ..............................
........................................................................
   1    -30.3139428 -0.303139E+02  0.240E-02    0.56       0.0  T
   2    -30.3139429 -0.104923E-06  0.142E-02    0.56       1.7  T
   3    -30.3139421  0.853339E-06  0.837E-03    0.56       2.8  T
   4    -30.3139430 -0.973560E-06  0.146E-03    0.56      16.2  T
   5    -30.3139430 -0.146992E-07  0.626E-04    0.56      37.6  T
   6    -30.3139430 -0.175254E-08  0.250E-04    0.56      94.4  T
     SCC iter.                  ...        0 min,  0.008 sec
     gradient                   ...        0 min,  0.010 sec
 * total energy  :   -29.8994007 Eh     change       -0.2487527E-04 Eh
   gradient norm :     0.0027643 Eh/α   predicted    -0.1433653E-04 ( -42.37%)
   displ. norm   :     0.4463890 α      lambda       -0.1146471E-03
   maximum displ.:     0.3014164 α      in ANC's #4, #5, #2, ...

........................................................................
.............................. CYCLE   15 ..............................
........................................................................
   1    -30.3114734 -0.303115E+02  0.129E-01    0.56       0.0  T
   2    -30.3114778 -0.441247E-05  0.758E-02    0.56       1.0  T
   3    -30.3114658  0.120520E-04  0.314E-02    0.55       1.0  T
   4    -30.3114789 -0.131656E-04  0.840E-03    0.56       2.8  T
   5    -30.3114796 -0.606691E-06  0.326E-03    0.56       7.2  T
   6    -30.3114796 -0.297715E-07  0.150E-03    0.56      15.7  T
   7    -30.3114796 -0.172284E-07  0.512E-04    0.56      46.1  T
   8    -30.3114796 -0.110937E-08  0.322E-04    0.56      73.1  T
     SCC iter.                  ...        0 min,  0.010 sec
     gradient                   ...        0 min,  0.010 sec
 * total energy  :   -29.8994244 Eh     change       -0.2371294E-04 Eh
   gradient norm :     0.0089337 Eh/α   predicted    -0.6874796E-04 ( 189.92%)
   displ. norm   :     0.2193824 α      lambda       -0.2053255E-03
   maximum displ.:     0.1480732 α      in ANC's #4, #5, #2, ...

........................................................................
.............................. CYCLE   16 ..............................
........................................................................
   1    -30.3147216 -0.303147E+02  0.721E-02    0.55       0.0  T
   2    -30.3147248 -0.323347E-05  0.412E-02    0.56       1.0  T
   3    -30.3147237  0.115119E-05  0.138E-02    0.55       1.7  T
   4    -30.3147251 -0.144020E-05  0.505E-03    0.56       4.7  T
   5    -30.3147253 -0.229654E-06  0.209E-03    0.55      11.3  T
   6    -30.3147253 -0.103864E-07  0.102E-03    0.55      23.1  T
   7    -30.3147254 -0.963206E-08  0.304E-04    0.55      77.5  T
   8    -30.3147254 -0.195293E-09  0.219E-04    0.55     107.4  T
     SCC iter.                  ...        0 min,  0.010 sec
     gradient                   ...        0 min,  0.010 sec
 * total energy  :   -29.8994686 Eh     change       -0.4420130E-04 Eh
   gradient norm :     0.0012915 Eh/α   predicted    -0.1076044E-03 ( 143.44%)
   displ. norm   :     0.1677281 α      lambda       -0.3109487E-04
   maximum displ.:     0.1121220 α      in ANC's #4, #5, #2, ...

........................................................................
.............................. CYCLE   17 ..............................
........................................................................
   1    -30.3140189 -0.303140E+02  0.497E-02    0.55       0.0  T
   2    -30.3140195 -0.657932E-06  0.294E-02    0.55       1.0  T
   3    -30.3140164  0.310509E-05  0.148E-02    0.55       1.6  T
   4    -30.3140199 -0.346925E-05  0.333E-03    0.55       7.1  T
   5    -30.3140200 -0.876265E-07  0.139E-03    0.55      16.9  T
   6    -30.3140200 -0.669658E-08  0.702E-04    0.55      33.6  T
   7    -30.3140200 -0.453242E-08  0.207E-04    0.55     113.8  T
     SCC iter.                  ...        0 min,  0.008 sec
     gradient                   ...        0 min,  0.010 sec
 * total energy  :   -29.8995073 Eh     change       -0.3874429E-04 Eh
   gradient norm :     0.0019801 Eh/α   predicted    -0.1574229E-04 ( -59.37%)
   displ. norm   :     0.2932818 α      lambda       -0.3619916E-04
   maximum displ.:     0.1954902 α      in ANC's #4, #5, #2, ...

........................................................................
.............................. CYCLE   18 ..............................
........................................................................
   1    -30.3117190 -0.303117E+02  0.892E-02    0.55       0.0  T
   2    -30.3117227 -0.369554E-05  0.524E-02    0.55       1.0  T
   3    -30.3117139  0.887032E-05  0.262E-02    0.54       1.0  T
   4    -30.3117238 -0.988387E-05  0.743E-03    0.55       3.2  T
   5    -30.3117243 -0.567313E-06  0.268E-03    0.55       8.8  T
   6    -30.3117243 -0.177684E-07  0.145E-03    0.55      16.3  T
   7    -30.3117244 -0.177334E-07  0.434E-04    0.55      54.3  T
   8    -30.3117244 -0.114296E-08  0.254E-04    0.55      92.7  T
     SCC iter.                  ...        0 min,  0.009 sec
     gradient                   ...        0 min,  0.010 sec
 * total energy  :   -29.8994663 Eh     change        0.4098728E-04 Eh
   gradient norm :     0.0091474 Eh/α   predicted    -0.1879492E-04 (-145.86%)
   displ. norm   :     0.1244459 α      lambda       -0.1191011E-03
   maximum displ.:     0.0838444 α      in ANC's #4, #5, #2, ...

........................................................................
.............................. CYCLE   19 ..............................
........................................................................
   1    -30.3135127 -0.303135E+02  0.410E-02    0.55       0.0  T
   2    -30.3135139 -0.120231E-05  0.237E-02    0.55       1.0  T
   3    -30.3135128  0.110294E-05  0.104E-02    0.55       2.3  T
   4    -30.3135140 -0.113508E-05  0.408E-03    0.55       5.8  T
   5    -30.3135142 -0.208734E-06  0.117E-03    0.55      20.1  T
   6    -30.3135142  0.716589E-09  0.662E-04    0.55      35.6  T
   7    -30.3135142 -0.473854E-08  0.184E-04    0.55     127.9  T
     SCC iter.                  ...        0 min,  0.009 sec
     gradient                   ...        0 min,  0.010 sec
 * total energy  :   -29.8995308 Eh     change       -0.6448729E-04 Eh
   gradient norm :     0.0040253 Eh/α   predicted    -0.6047295E-04 (  -6.23%)
   displ. norm   :     0.0074666 α      lambda       -0.1540378E-04
   maximum displ.:     0.0048297 α      in ANC's #3, #24, #1, ...

........................................................................
.............................. CYCLE   20 ..............................
........................................................................
   1    -30.3139673 -0.303140E+02  0.631E-03    0.55       0.0  T
   2    -30.3139674 -0.677769E-07  0.347E-03    0.55       6.8  T
   3    -30.3139673  0.200200E-07  0.183E-03    0.55      12.8  T
   4    -30.3139674 -0.220050E-07  0.861E-04    0.55      27.4  T
   5    -30.3139674 -0.862405E-08  0.250E-04    0.55      94.5  T
     SCC iter.                  ...        0 min,  0.006 sec
     gradient                   ...        0 min,  0.010 sec
 * total energy  :   -29.8995437 Eh     change       -0.1284353E-04 Eh
   gradient norm :     0.0027607 Eh/α   predicted    -0.7702265E-05 ( -40.03%)
   displ. norm   :     0.0593905 α      lambda       -0.3543726E-04
   maximum displ.:     0.0359939 α      in ANC's #4, #5, #2, ...
 * RMSD in coord.:     0.3033312 α      energy gain  -0.1094879E-01 Eh

generating ANC from model Hessian ...
Using Lindh-Hessian (1995)
 Shifting diagonal of input Hessian by   8.200731336718253E-003
 Lowest  eigenvalues of input Hessian
    0.000000    0.000000    0.000000    0.000000    0.000000    0.000000
    0.010000    0.012334    0.013569    0.015872    0.021790    0.026291
    0.031337    0.035829    0.043752    0.044756    0.055425    0.058048
 Highest eigenvalues
    1.646978    1.764542    1.827700    1.911685    1.958374    2.056819
 

........................................................................
.............................. CYCLE   21 ..............................
........................................................................
   1    -30.3147724 -0.303148E+02  0.214E-02    0.56       0.0  T
   2    -30.3147726 -0.247066E-06  0.124E-02    0.55       1.9  T
   3    -30.3147722  0.406894E-06  0.580E-03    0.56       4.1  T
   4    -30.3147727 -0.451592E-06  0.182E-03    0.55      13.0  T
   5    -30.3147727 -0.343241E-07  0.659E-04    0.55      35.8  T
   6    -30.3147727 -0.509829E-09  0.351E-04    0.55      67.1  T
     SCC iter.                  ...        0 min,  0.007 sec
     gradient                   ...        0 min,  0.010 sec
 * total energy  :   -29.8995690 Eh     change       -0.2530297E-04 Eh
   gradient norm :     0.0009454 Eh/α   predicted     0.0000000E+00 (-100.00%)
   displ. norm   :     0.0299391 α      lambda       -0.6445372E-05
   maximum displ.:     0.0198872 α      in ANC's #2, #4, #3, ...

........................................................................
.............................. CYCLE   22 ..............................
........................................................................
   1    -30.3146436 -0.303146E+02  0.101E-02    0.55       0.0  T
   2    -30.3146437 -0.593265E-07  0.599E-03    0.55       3.9  T
   3    -30.3146435  0.129533E-06  0.359E-03    0.56       6.6  T
   4    -30.3146437 -0.166361E-06  0.931E-04    0.55      25.3  T
   5    -30.3146437 -0.104137E-07  0.323E-04    0.55      73.0  T
     SCC iter.                  ...        0 min,  0.006 sec
     gradient                   ...        0 min,  0.010 sec
 * total energy  :   -29.8995777 Eh     change       -0.8738362E-05 Eh
   gradient norm :     0.0004899 Eh/α   predicted    -0.3222283E-05 ( -63.12%)
   displ. norm   :     0.1791855 α      lambda       -0.3356899E-04
   maximum displ.:     0.1110736 α      in ANC's #2, #4, #5, ...

........................................................................
.............................. CYCLE   23 ..............................
........................................................................
   1    -30.3139026 -0.303139E+02  0.583E-02    0.55       0.0  T
   2    -30.3139035 -0.943138E-06  0.346E-02    0.55       1.0  T
   3    -30.3138982  0.538272E-05  0.199E-02    0.56       1.2  T
   4    -30.3139045 -0.630281E-05  0.389E-03    0.55       6.1  T
   5    -30.3139046 -0.155337E-06  0.161E-03    0.55      14.6  T
   6    -30.3139046 -0.147595E-07  0.667E-04    0.55      35.3  T
   7    -30.3139046 -0.262314E-08  0.271E-04    0.55      87.0  T
     SCC iter.                  ...        0 min,  0.008 sec
     gradient                   ...        0 min,  0.010 sec
 * total energy  :   -29.8996107 Eh     change       -0.3299019E-04 Eh
   gradient norm :     0.0026823 Eh/α   predicted    -0.1702369E-04 ( -48.40%)
   displ. norm   :     0.0867403 α      lambda       -0.1888842E-04
   maximum displ.:     0.0534331 α      in ANC's #2, #4, #5, ...

........................................................................
.............................. CYCLE   24 ..............................
........................................................................
   1    -30.3138453 -0.303138E+02  0.240E-02    0.55       0.0  T
   2    -30.3138454 -0.367904E-07  0.144E-02    0.55       1.6  T
   3    -30.3138447  0.655546E-06  0.630E-03    0.55       3.7  T
   4    -30.3138454 -0.723722E-06  0.844E-04    0.55      27.9  T
   5    -30.3138454 -0.283229E-08  0.497E-04    0.55      47.4  T
     SCC iter.                  ...        0 min,  0.006 sec
     gradient                   ...        0 min,  0.010 sec
 * total energy  :   -29.8996258 Eh     change       -0.1513444E-04 Eh
   gradient norm :     0.0030648 Eh/α   predicted    -0.9515565E-05 ( -37.13%)
   displ. norm   :     0.1860303 α      lambda       -0.4336089E-04
   maximum displ.:     0.1131329 α      in ANC's #4, #2, #5, ...

........................................................................
.............................. CYCLE   25 ..............................
........................................................................
   1    -30.3136224 -0.303136E+02  0.522E-02    0.55       0.0  T
   2    -30.3136226 -0.181657E-06  0.311E-02    0.55       1.0  T
   3    -30.3136214  0.121696E-05  0.887E-03    0.55       2.7  T
   4    -30.3136227 -0.134821E-05  0.173E-03    0.55      13.6  T
   5    -30.3136227 -0.148568E-07  0.841E-04    0.55      28.0  T
   6    -30.3136227 -0.371342E-08  0.345E-04    0.55      68.3  T
     SCC iter.                  ...        0 min,  0.007 sec
     gradient                   ...        0 min,  0.010 sec
 * total energy  :   -29.8996557 Eh     change       -0.2991099E-04 Eh
   gradient norm :     0.0037852 Eh/α   predicted    -0.2243122E-04 ( -25.01%)
   displ. norm   :     0.1376698 α      lambda       -0.5352886E-04
   maximum displ.:     0.0819737 α      in ANC's #4, #2, #5, ...

........................................................................
.............................. CYCLE   26 ..............................
........................................................................
   1    -30.3142519 -0.303143E+02  0.386E-02    0.55       0.0  T
   2    -30.3142523 -0.345923E-06  0.230E-02    0.55       1.0  T
   3    -30.3142518  0.480962E-06  0.639E-03    0.55       3.7  T
   4    -30.3142523 -0.555809E-06  0.180E-03    0.55      13.1  T
   5    -30.3142524 -0.340797E-07  0.821E-04    0.55      28.7  T
   6    -30.3142524 -0.497617E-08  0.320E-04    0.55      73.6  T
     SCC iter.                  ...        0 min,  0.007 sec
     gradient                   ...        0 min,  0.010 sec
 * total energy  :   -29.8996968 Eh     change       -0.4103780E-04 Eh
   gradient norm :     0.0025112 Eh/α   predicted    -0.2727269E-04 ( -33.54%)
   displ. norm   :     0.2089896 α      lambda       -0.6007390E-04
   maximum displ.:     0.1288900 α      in ANC's #4, #2, #5, ...

........................................................................
.............................. CYCLE   27 ..............................
........................................................................
   1    -30.3139572 -0.303140E+02  0.597E-02    0.55       0.0  T
   2    -30.3139581 -0.888699E-06  0.353E-02    0.55       1.0  T
   3    -30.3139563  0.178059E-05  0.115E-02    0.55       2.1  T
   4    -30.3139583 -0.196107E-05  0.351E-03    0.55       6.7  T
   5    -30.3139584 -0.140334E-06  0.143E-03    0.55      16.5  T
   6    -30.3139584 -0.104170E-07  0.689E-04    0.55      34.2  T
   7    -30.3139584 -0.385554E-08  0.234E-04    0.55     100.5  T
     SCC iter.                  ...        0 min,  0.008 sec
     gradient                   ...        0 min,  0.010 sec
 * total energy  :   -29.8997381 Eh     change       -0.4134506E-04 Eh
   gradient norm :     0.0035124 Eh/α   predicted    -0.3134925E-04 ( -24.18%)
   displ. norm   :     0.2043123 α      lambda       -0.1282890E-03
   maximum displ.:     0.1125752 α      in ANC's #5, #4, #3, ...

........................................................................
.............................. CYCLE   28 ..............................
........................................................................
   1    -30.3164478 -0.303164E+02  0.751E-02    0.55       0.0  T
   2    -30.3164513 -0.353866E-05  0.443E-02    0.56       1.0  T
   3    -30.3164431  0.817208E-05  0.273E-02    0.55       1.0  T
   4    -30.3164539 -0.107965E-04  0.713E-03    0.55       3.3  T
   5    -30.3164544 -0.421877E-06  0.294E-03    0.55       8.0  T
   6    -30.3164544 -0.469834E-07  0.137E-03    0.55      17.2  T
   7    -30.3164544 -0.145494E-07  0.465E-04    0.55      50.7  T
   8    -30.3164544 -0.174823E-08  0.200E-04    0.55     117.8  T
     SCC iter.                  ...        0 min,  0.010 sec
     gradient                   ...        0 min,  0.010 sec
 * total energy  :   -29.8997541 Eh     change       -0.1594848E-04 Eh
   gradient norm :     0.0054361 Eh/α   predicted    -0.6681933E-04 ( 318.97%)
   displ. norm   :     0.3340385 α      lambda       -0.1332898E-03
   maximum displ.:     0.2127262 α      in ANC's #4, #5, #2, ...

........................................................................
.............................. CYCLE   29 ..............................
........................................................................
   1    -30.3118808 -0.303119E+02  0.107E-01    0.55       0.0  T
   2    -30.3118885 -0.773430E-05  0.620E-02    0.55       1.0  T
   3    -30.3118847  0.383254E-05  0.209E-02    0.55       1.1  T
   4    -30.3118881 -0.345922E-05  0.101E-02    0.55       2.3  T
   5    -30.3118896 -0.148217E-05  0.302E-03    0.55       7.8  T
   6    -30.3118896  0.239947E-08  0.179E-03    0.55      13.2  T
   7    -30.3118896 -0.337607E-07  0.437E-04    0.55      54.0  T
   8    -30.3118896 -0.585697E-09  0.271E-04    0.55      86.9  T
     SCC iter.                  ...        0 min,  0.009 sec
     gradient                   ...        0 min,  0.010 sec
 * total energy  :   -29.8996888 Eh     change        0.6524346E-04 Eh
   gradient norm :     0.0105254 Eh/α   predicted    -0.7408097E-04 (-213.55%)
   displ. norm   :     0.2885549 α      lambda       -0.3491972E-03
   maximum displ.:     0.1724097 α      in ANC's #4, #5, #2, ...

........................................................................
.............................. CYCLE   30 ..............................
........................................................................
   1    -30.3150885 -0.303151E+02  0.934E-02    0.56       0.0  T
   2    -30.3150949 -0.636261E-05  0.545E-02    0.55       1.0  T
   3    -30.3150872  0.762827E-05  0.263E-02    0.56       1.0  T
   4    -30.3150959 -0.872219E-05  0.896E-03    0.55       2.6  T
   5    -30.3150969 -0.968978E-06  0.308E-03    0.55       7.6  T
   6    -30.3150970 -0.463012E-07  0.157E-03    0.55      15.0  T
   7    -30.3150970 -0.152639E-07  0.533E-04    0.55      44.2  T
   8    -30.3150970 -0.265602E-08  0.235E-04    0.55     100.4  T
     SCC iter.                  ...        0 min,  0.010 sec
     gradient                   ...        0 min,  0.010 sec
 * total energy  :   -29.8998018 Eh     change       -0.1129773E-03 Eh
   gradient norm :     0.0017634 Eh/α   predicted    -0.1891362E-03 (  67.41%)
   displ. norm   :     0.0675882 α      lambda       -0.9105278E-05
   maximum displ.:     0.0435464 α      in ANC's #4, #5, #2, ...

........................................................................
.............................. CYCLE   31 ..............................
........................................................................
   1    -30.3149329 -0.303149E+02  0.206E-02    0.55       0.0  T
   2    -30.3149329 -0.446016E-07  0.121E-02    0.55       2.0  T
   3    -30.3149325  0.463431E-06  0.598E-03    0.55       3.9  T
   4    -30.3149330 -0.518426E-06  0.106E-03    0.55      22.2  T
   5    -30.3149330 -0.529081E-08  0.529E-04    0.55      44.5  T
   6    -30.3149330 -0.171788E-08  0.129E-04    0.55     183.1  T
     SCC iter.                  ...        0 min,  0.007 sec
     gradient                   ...        0 min,  0.009 sec
 * total energy  :   -29.8998132 Eh     change       -0.1135083E-04 Eh
   gradient norm :     0.0013893 Eh/α   predicted    -0.4563613E-05 ( -59.79%)
   displ. norm   :     0.2675078 α      lambda       -0.2720860E-04
   maximum displ.:     0.1734510 α      in ANC's #4, #5, #2, ...

........................................................................
.............................. CYCLE   32 ..............................
........................................................................
   1    -30.3132059 -0.303132E+02  0.804E-02    0.55       0.0  T
   2    -30.3132073 -0.141310E-05  0.469E-02    0.56       1.0  T
   3    -30.3132026  0.465507E-05  0.199E-02    0.55       1.2  T
   4    -30.3132078 -0.517969E-05  0.488E-03    0.56       4.8  T
   5    -30.3132080 -0.180200E-06  0.217E-03    0.55      10.9  T
   6    -30.3132080 -0.237202E-07  0.746E-04    0.55      31.6  T
   7    -30.3132080 -0.319677E-08  0.276E-04    0.55      85.4  T
     SCC iter.                  ...        0 min,  0.008 sec
     gradient                   ...        0 min,  0.009 sec
 * total energy  :   -29.8998048 Eh     change        0.8347240E-05 Eh
   gradient norm :     0.0049487 Eh/α   predicted    -0.1403886E-04 (-268.19%)
   displ. norm   :     0.1009818 α      lambda       -0.5051558E-04
   maximum displ.:     0.0652837 α      in ANC's #4, #5, #2, ...

........................................................................
.............................. CYCLE   33 ..............................
........................................................................
   1    -30.3144999 -0.303145E+02  0.325E-02    0.56       0.0  T
   2    -30.3145004 -0.486669E-06  0.188E-02    0.55       1.3  T
   3    -30.3144997  0.728337E-06  0.803E-03    0.56       2.9  T
   4    -30.3145004 -0.790032E-06  0.258E-03    0.55       9.1  T
   5    -30.3145005 -0.715698E-07  0.867E-04    0.55      27.2  T
   6    -30.3145005 -0.691234E-09  0.386E-04    0.56      61.0  T
     SCC iter.                  ...        0 min,  0.007 sec
     gradient                   ...        0 min,  0.010 sec
 * total energy  :   -29.8998304 Eh     change       -0.2555856E-04 Eh
   gradient norm :     0.0014897 Eh/α   predicted    -0.2551575E-04 (  -0.17%)
   displ. norm   :     0.0238611 α      lambda       -0.4655747E-05
   maximum displ.:     0.0132958 α      in ANC's #4, #2, #5, ...

........................................................................
.............................. CYCLE   34 ..............................
........................................................................
   1    -30.3149174 -0.303149E+02  0.842E-03    0.56       0.0  T
   2    -30.3149174 -0.423770E-07  0.487E-03    0.56       4.8  T
   3    -30.3149174  0.202575E-07  0.149E-03    0.56      15.8  T
   4    -30.3149174 -0.195702E-07  0.693E-04    0.55      34.0  T
   5    -30.3149174 -0.711111E-08  0.217E-04    0.56     108.4  T
     SCC iter.                  ...        0 min,  0.006 sec
     gradient                   ...        0 min,  0.010 sec
 * total energy  :   -29.8998355 Eh     change       -0.5172294E-05 Eh
   gradient norm :     0.0005749 Eh/α   predicted    -0.2330294E-05 ( -54.95%)
   displ. norm   :     0.0853075 α      lambda       -0.7021155E-05
   maximum displ.:     0.0509051 α      in ANC's #4, #2, #5, ...

........................................................................
.............................. CYCLE   35 ..............................
........................................................................
   1    -30.3151080 -0.303151E+02  0.239E-02    0.56       0.0  T
   2    -30.3151081 -0.373437E-07  0.141E-02    0.55       1.7  T
   3    -30.3151077  0.328190E-06  0.441E-03    0.56       5.3  T
   4    -30.3151081 -0.361925E-06  0.930E-04    0.55      25.3  T
   5    -30.3151081 -0.302251E-08  0.505E-04    0.55      46.7  T
     SCC iter.                  ...        0 min,  0.006 sec
     gradient                   ...        0 min,  0.009 sec
 * total energy  :   -29.8998443 Eh     change       -0.8721379E-05 Eh
   gradient norm :     0.0003443 Eh/α   predicted    -0.3522599E-05 ( -59.61%)
   displ. norm   :     0.2420052 α      lambda       -0.1390583E-04
   maximum displ.:     0.1430778 α      in ANC's #4, #2, #5, ...

........................................................................
.............................. CYCLE   36 ..............................
........................................................................
   1    -30.3139437 -0.303139E+02  0.677E-02    0.55       0.0  T
   2    -30.3139443 -0.651673E-06  0.400E-02    0.55       1.0  T
   3    -30.3139436  0.730095E-06  0.777E-03    0.56       3.0  T
   4    -30.3139444 -0.744808E-06  0.362E-03    0.55       6.5  T
   5    -30.3139445 -0.153710E-06  0.109E-03    0.55      21.7  T
   6    -30.3139445  0.505846E-09  0.476E-04    0.55      49.5  T
   7    -30.3139445 -0.296012E-08  0.173E-04    0.55     136.1  T
     SCC iter.                  ...        0 min,  0.008 sec
     gradient                   ...        0 min,  0.010 sec
 * total energy  :   -29.8998414 Eh     change        0.2901715E-05 Eh
   gradient norm :     0.0035486 Eh/α   predicted    -0.7135650E-05 (-345.91%)
   displ. norm   :     0.0919452 α      lambda       -0.2777927E-04
   maximum displ.:     0.0566186 α      in ANC's #4, #5, #2, ...

........................................................................
.............................. CYCLE   37 ..............................
........................................................................
   1    -30.3148223 -0.303148E+02  0.279E-02    0.55       0.0  T
   2    -30.3148226 -0.285842E-06  0.162E-02    0.55       1.5  T
   3    -30.3148226 -0.427697E-09  0.268E-03    0.55       8.8  T
   4    -30.3148226 -0.123927E-07  0.129E-03    0.55      18.2  T
   5    -30.3148226 -0.142350E-07  0.668E-04    0.55      35.3  T
   6    -30.3148226 -0.231903E-08  0.244E-04    0.55      96.5  T
     SCC iter.                  ...        0 min,  0.007 sec
     gradient                   ...        0 min,  0.009 sec
 * total energy  :   -29.8998545 Eh     change       -0.1312258E-04 Eh
   gradient norm :     0.0009071 Eh/α   predicted    -0.1400626E-04 (   6.73%)
   displ. norm   :     0.0299088 α      lambda       -0.2188535E-05
   maximum displ.:     0.0200128 α      in ANC's #2, #4, #3, ...

........................................................................
.............................. CYCLE   38 ..............................
........................................................................
   1    -30.3149847 -0.303150E+02  0.988E-03    0.55       0.0  T
   2    -30.3149847 -0.164695E-07  0.582E-03    0.55       4.1  T
   3    -30.3149847  0.679374E-07  0.229E-03    0.55      10.3  T
   4    -30.3149848 -0.756514E-07  0.418E-04    0.55      56.4  T
   5    -30.3149848 -0.135542E-08  0.200E-04    0.55     117.6  T
     SCC iter.                  ...        0 min,  0.006 sec
     gradient                   ...        0 min,  0.010 sec
 * total energy  :   -29.8998570 Eh     change       -0.2514599E-05 Eh
   gradient norm :     0.0004678 Eh/α   predicted    -0.1096370E-05 ( -56.40%)
   displ. norm   :     0.0808539 α      lambda       -0.2895874E-05
   maximum displ.:     0.0517323 α      in ANC's #2, #4, #5, ...

   *** GEOMETRY OPTIMIZATION CONVERGED AFTER 38 ITERATIONS ***

------------------------------------------------------------------------
 total energy gain   :        -0.0112621 Eh       -7.0671 kcal/mol
 total RMSD          :         0.6334084 a0        0.3352 Å
 total power (kW/mol):        -0.7781240 (step)  -33.0332 (real)
------------------------------------------------------------------------

 ANCopt (total)                0 d,  0 h,  0 min,  0.895 sec
 optimizer setup                ...        0 min,  0.001 sec (  0.068%)
 model hessian                  ...        0 min,  0.006 sec (  0.721%)
 ANC generation                 ...        0 min,  0.001 sec (  0.165%)
 coordinate transformation      ...        0 min,  0.001 sec (  0.065%)
 single point calculation       ...        0 min,  0.868 sec ( 97.019%)
 optimization log               ...        0 min,  0.006 sec (  0.721%)
 hessian update                 ...        0 min,  0.001 sec (  0.065%)
 rational function              ...        0 min,  0.008 sec (  0.874%)

================
 final structure:
================
18
 xtb: 6.4.1 (afa7bdf)
C         3.39013119106791   -0.33833001983587    0.59848087040339
C         2.05557515313683   -0.32364933803503   -0.06598745276930
C         0.85449062120131    0.00982599350747    0.45709836159521
C        -0.23837321683353   -0.09154227088071   -0.46070717567672
C        -1.60675901436530    0.20613467791371   -0.13457726239009
N        -2.58310780994270    0.10132701150088   -1.05279645391104
N        -3.68900693411216    0.45938378188162   -0.35146791118252
C        -3.53685848770474    0.79540960333120    0.96569535230627
C        -2.14239466981073    0.62387465194152    1.10147141109469
C         0.19106825902496   -0.51102616089333   -1.68519289666308
S         1.90429494417439   -0.78710499103970   -1.74163136327127
H         3.29678625029820    0.02452751055581    1.62073082239298
H         3.80086625569985   -1.34988503998211    0.62244105710620
H         4.09782453247274    0.29621327692630    0.06255413747761
H         0.73131495139588    0.32576905438331    1.47937944005135
H        -4.56678945865680    0.45401748129561   -0.85429078067374
H        -1.56492057596924    0.78304464840585    2.00485840666941
H        -0.39414399107684   -0.67798787097651   -2.56606056255926
 
 Bond Distances (Angstroems)
 ---------------------------
C1-C2=1.4909         C1-H12=1.0887        C1-H13=1.0920        C1-H14=1.0912        C2-C1=1.4909         C2-C3=1.3518         
C2-S11=1.7451        C3-C2=1.3518         C3-C4=1.4307         C3-H15=1.0771        C4-C3=1.4307         C4-C5=1.4379         
C4-C10=1.3637        C5-C4=1.4379         C5-N6=1.3444         C5-C9=1.4104         N6-C5=1.3444         N6-N7=1.3576         
N7-N6=1.3576         N7-C8=1.3678         N7-H16=1.0116        C8-N7=1.3678         C8-C9=1.4115         C9-C5=1.4104         
C9-C8=1.4115         C9-H17=1.0839        C10-C4=1.3637        C10-S11=1.7362       C10-H18=1.0706       S11-C2=1.7451        
S11-C10=1.7362       H12-C1=1.0887        H13-C1=1.0920        H14-C1=1.0912        H15-C3=1.0771        H16-N7=1.0116        
H17-C9=1.0839        H18-C10=1.0706       
 C  H  Rav=1.0839 sigma=0.0078  Rmin=1.0706  Rmax=1.0920     6
 C  C  Rav=1.4139 sigma=0.0434  Rmin=1.3518  Rmax=1.4909     7
 N  H  Rav=1.0116 sigma=0.0000  Rmin=1.0116  Rmax=1.0116     1
 N  C  Rav=1.3561 sigma=0.0117  Rmin=1.3444  Rmax=1.3678     2
 N  N  Rav=1.3576 sigma=0.0000  Rmin=1.3576  Rmax=1.3576     1
 S  C  Rav=1.7407 sigma=0.0044  Rmin=1.7362  Rmax=1.7451     2
 
 selected bond angles (degree)
 --------------------
H12-C1-C2=109.78               H13-C1-C2=110.83               H13-C1-H12=108.69              H14-C1-C2=110.85               
H14-C1-H12=108.84              H14-C1-H13=107.79              C3-C2-C1=128.70                S11-C2-C1=120.19               
S11-C2-C3=111.10               C4-C3-C2=114.39                H15-C3-C2=122.77               H15-C3-C4=122.84               
C5-C4-C3=124.53                C10-C4-C3=110.93               C10-C4-C5=124.54               N6-C5-C4=121.34                
C9-C5-C4=128.43                C9-C5-N6=110.23                N7-N6-C5=102.60                C8-N7-N6=118.14                
H16-N7-N6=116.66               H16-N7-C8=125.20               C9-C8-N7= 99.94                C8-C9-C5=109.08                
H17-C9-C5=124.86               H17-C9-C8=126.06               S11-C10-C4=112.88              H18-C10-C4=127.92              
H18-C10-S11=119.20             
 
 selected dihedral angles (degree)
 ---------------------------------
C3-C2-C1-H12=356.99           C3-C2-C1-H13=117.06           C3-C2-C1-H14=236.71           S11-C2-C1-H12=177.28          
S11-C2-C1-H13=297.35          S11-C2-C1-H14= 57.00          C4-C3-C2-C1=180.28            C4-C3-C2-S11=  0.00           
H15-C3-C2-C1=  0.30           H15-C3-C2-S11=180.04          C5-C4-C3-C2=179.82            C5-C4-C3-H15=359.80           
C10-C4-C3-C2=359.95           C10-C4-C3-H15=179.93          N6-C5-C4-C3=179.33            N6-C5-C4-C10=359.18           
C9-C5-C4-C3=359.12            C9-C5-C4-C10=178.97           N7-N6-C5-C4=179.87            N7-N6-C5-C9=  0.05            
C8-N7-N6-C5=359.92            H16-N7-N6-C5=179.97           C9-C8-N7-N6=  0.08            C9-C8-N7-H16=180.02           
C8-C9-C5-C4=180.19            C8-C9-C5-N6=  0.00            H17-C9-C5-C4=  0.12           H17-C9-C5-N6=179.92           
C5-C9-C8-N7=359.96            H17-C9-C8-N7=180.03           S11-C10-C4-C3=  0.06          S11-C10-C4-C5=180.19          
H18-C10-C4-C3=180.01          H18-C10-C4-C5=  0.14          
           -------------------------------------------------
          |                Final Singlepoint                |
           -------------------------------------------------

          ...................................................
          :                      SETUP                      :
          :.................................................:
          :  # basis functions                  57          :
          :  # atomic orbitals                  56          :
          :  # shells                           30          :
          :  # electrons                        56          :
          :  max. iterations                   250          :
          :  Hamiltonian                  GFN2-xTB          :
          :  restarted?                      false          :
          :  GBSA solvation                  false          :
          :  PC potential                    false          :
          :  electronic temp.          300.0000000     K    :
          :  accuracy                    1.0000000          :
          :  -> integral cutoff          0.2500000E+02      :
          :  -> integral neglect         0.1000000E-07      :
          :  -> SCF convergence          0.1000000E-05 Eh   :
          :  -> wf. convergence          0.1000000E-03 e    :
          :  Broyden damping             0.4000000          :
          ...................................................

 iter      E             dE          RMSdq      gap      omega  full diag
   1    -30.3149848 -0.303150E+02  0.939E-05    0.55       0.0  T
   2    -30.3149848 -0.265992E-10  0.664E-05    0.55     355.0  T
   3    -30.3149848 -0.540048E-10  0.324E-05    0.55     728.1  T

   *** convergence criteria satisfied after 3 iterations ***

         #    Occupation            Energy/Eh            Energy/eV
      -------------------------------------------------------------
         1        2.0000           -0.5925151             -16.1232
       ...           ...                  ...                  ...
        22        2.0000           -0.2611865              -7.1072
        23        2.0000           -0.2487909              -6.7699
        24        2.0000           -0.2448262              -6.6621
        25        2.0000           -0.1890371              -5.1440
        26        2.0000           -0.1850672              -5.0359
        27        2.0000           -0.1578693              -4.2958
        28        2.0000           -0.1224891              -3.3331 (HOMO)
        29        0.0000           -0.1021310              -2.7791 (LUMO)
        30                         -0.0729061              -1.9839
        31                         -0.0419934              -1.1427
        32                          0.0125403               0.3412
        33                          0.0332128               0.9038
       ...                                ...                  ...
        56                          0.8686847              23.6381
      -------------------------------------------------------------
                  HL-Gap            0.0203580 Eh            0.5540 eV
             Fermi-level           -0.1123101 Eh           -3.0561 eV
 
 localization/xTB-IFF output generation
 averaging CT terms over            1  occ. levels
 averaging CT terms over            1  virt. levels
 dipole moment from electron density (au)
     X       Y       Z   
   3.4598  -0.4387   0.2595  total (Debye):    8.889
cpu  time for init local    0.00 s
wall time for init local    0.00 s
 doing rotations ...
 initialization of trafo matrix to unity

 converged in     48 iterations, threshold :   0.98593788D-06
 doing transformations ...
 lmo centers(Z=2) and atoms on file <lmocent.coord>
 LMO Fii/eV  ncent    charge center   contributions...
    1 sigma -11.62   1.97   5.16862  -0.62814   0.50342    1C :  0.52    2C :  0.49
    2 sigma -11.44   1.94   3.84529  -1.07702  -1.74828   11S :  0.59    2C :  0.41
    3 sigma -11.25   1.99   6.88671  -1.89769   1.15085    1C :  0.51   13H :  0.49
    4 sigma -11.24   1.99   7.25960   0.15366   0.45422    1C :  0.51   14H :  0.49
    5 sigma -11.24   1.98   6.27801  -0.18626   2.39974    1C :  0.51   12H :  0.50
    6 sigma -11.17   1.89   2.06025  -1.26721  -3.33712   11S :  0.61   10C :  0.39
    7 sigma -10.78   1.98  -5.97009   0.51661  -1.33037    7N :  0.53    6N :  0.47
    8 sigma -10.69   2.00   0.55869  -0.05617   0.05677    3C :  0.52    4C :  0.48
    9 LP    -10.46   1.15   4.56529   0.59810  -4.50976   11S :  0.93
   10 LP    -10.45   1.15   3.85378  -4.07133  -3.15275   11S :  0.93
   11 sigma -10.32   2.02   1.47153   0.41098   2.13814    3C :  0.50   15H :  0.50
   12 sigma -10.24   1.99  -8.02729   0.85999  -1.26446    7N :  0.53   16H :  0.47
   13 sigma -10.21   2.01  -0.35705  -1.18029  -4.29872   10C :  0.50   18H :  0.50
   14 pi     -9.88   2.10   2.79320   0.19326   0.17146    2C :  0.50    3C :  0.48
   15 pi     -9.88   2.10   2.64071  -0.80680   0.46186    2C :  0.50    3C :  0.48
   16 sigma  -9.82   2.02  -1.65498   0.08807  -0.58935    4C :  0.54    5C :  0.45
   17 pi     -9.24   2.17  -0.03410  -1.06839  -1.86617   10C :  0.51    4C :  0.45
   18 pi     -9.24   2.17   0.11511  -0.08492  -2.15100   10C :  0.51    4C :  0.45
   19 sigma  -8.67   2.01  -3.44318   0.63040   0.95340    5C :  0.52    9C :  0.47
   20 pi     -8.42   1.76  -6.86335   0.63161   0.20503    7N :  0.70    8C :  0.28
   21 sigma  -8.26   1.99  -3.28068   1.38823   3.27979   17H :  0.55    9C :  0.45
   22 pi     -8.14   2.10  -4.12933  -0.15382  -1.12009    6N :  0.56    5C :  0.40
   23 pi     -8.12   2.11  -4.01542   0.72068  -1.35276    6N :  0.56    5C :  0.40
   24 pi     -8.04   1.72  -6.68762   1.43699  -0.16575    7N :  0.72    8C :  0.24
   25 sigma  -7.84   1.99  -5.30224   1.28452   2.02624    9C :  0.55    8C :  0.45
   26 LP     -6.21   1.02  -4.93647  -0.28989  -3.77681    6N :  0.99
   27 delpi  -4.98   2.63  -4.24996   1.18454   1.23198    9C :  0.56    5C :  0.18    8C :  0.17
   28 LP     -4.58   1.05  -8.04795   2.02917   3.00761    8C :  0.98
 starting deloc pi regularization ...
 thr    2.20000000000000      # pi deloc LMO           5
 files:
 coordprot.0/xtbscreen.xyz/xtblmoinfo/lmocent.coord
 with protonation site input, xtbdock and
 LMO center info written
 

 SCC (total)                   0 d,  0 h,  0 min,  0.035 sec
 SCC setup                      ...        0 min,  0.000 sec (  0.645%)
 Dispersion                     ...        0 min,  0.000 sec (  0.364%)
 classical contributions        ...        0 min,  0.000 sec (  0.121%)
 integral evaluation            ...        0 min,  0.004 sec ( 12.735%)
 iterations                     ...        0 min,  0.004 sec ( 12.356%)
 molecular gradient             ...        0 min,  0.010 sec ( 27.660%)
 printout                       ...        0 min,  0.016 sec ( 45.978%)

         :::::::::::::::::::::::::::::::::::::::::::::::::::::
         ::                     SUMMARY                     ::
         :::::::::::::::::::::::::::::::::::::::::::::::::::::
         :: total energy             -29.899856994237 Eh    ::
         :: gradient norm              0.000469209579 Eh/a0 ::
         :: HOMO-LUMO gap              0.553970125046 eV    ::
         ::.................................................::
         :: SCC energy               -30.314984754533 Eh    ::
         :: -> isotropic ES            0.122152869313 Eh    ::
         :: -> anisotropic ES          0.003531193747 Eh    ::
         :: -> anisotropic XC          0.017619226809 Eh    ::
         :: -> dispersion             -0.018641329679 Eh    ::
         :: repulsion energy           0.415150095335 Eh    ::
         :: add. restraining           0.000000000000 Eh    ::
         :: total charge              -1.000000000000 e     ::
         :::::::::::::::::::::::::::::::::::::::::::::::::::::

           -------------------------------------------------
          |                Property Printout                |
           -------------------------------------------------

    * Orbital Energies and Occupations

         #    Occupation            Energy/Eh            Energy/eV
      -------------------------------------------------------------
         1        2.0000           -0.5925151             -16.1232
       ...           ...                  ...                  ...
        16        2.0000           -0.3309153              -9.0047
        17        2.0000           -0.3211287              -8.7384
        18        2.0000           -0.3177929              -8.6476
        19        2.0000           -0.3043302              -8.2812
        20        2.0000           -0.2928180              -7.9680
        21        2.0000           -0.2746751              -7.4743
        22        2.0000           -0.2611865              -7.1072
        23        2.0000           -0.2487909              -6.7699
        24        2.0000           -0.2448262              -6.6621
        25        2.0000           -0.1890371              -5.1440
        26        2.0000           -0.1850672              -5.0359
        27        2.0000           -0.1578693              -4.2958
        28        2.0000           -0.1224891              -3.3331 (HOMO)
        29        0.0000           -0.1021310              -2.7791 (LUMO)
        30                         -0.0729061              -1.9839
        31                         -0.0419934              -1.1427
        32                          0.0125403               0.3412
        33                          0.0332128               0.9038
        34                          0.0877657               2.3882
        35                          0.1225377               3.3344
        36                          0.1510819               4.1111
        37                          0.1653709               4.5000
        38                          0.2118945               5.7659
        39                          0.2374205               6.4605
       ...                                ...                  ...
        56                          0.8686847              23.6381
      -------------------------------------------------------------
                  HL-Gap            0.0203580 Eh            0.5540 eV
             Fermi-level           -0.1123101 Eh           -3.0561 eV

     #   Z          covCN         q      C6AA      α(0)
     1   6 C        3.774    -0.091    22.274     6.725
     2   6 C        2.973     0.019    27.589     8.616
     3   6 C        3.119    -0.056    29.219     8.853
     4   6 C        3.126    -0.007    27.991     8.663
     5   6 C        3.104     0.036    27.052     8.522
     6   7 N        1.949    -0.358    30.161     8.144
     7   7 N        3.068    -0.030    21.816     6.937
     8   6 C        1.960    -0.307    40.559    10.285
     9   6 C        3.073    -0.084    30.013     8.982
    10   6 C        2.945    -0.027    28.685     8.784
    11  16 S        2.291    -0.201   149.619    20.587
    12   1 H        0.925     0.028     2.618     2.530
    13   1 H        0.924     0.029     2.597     2.520
    14   1 H        0.924     0.030     2.590     2.517
    15   1 H        0.926     0.014     2.818     2.625
    16   1 H        0.860     0.073     2.064     2.250
    17   1 H        0.925    -0.088     5.154     3.550
    18   1 H        0.927     0.020     2.730     2.584

 Mol. C6AA /au·bohr⁶  :       5966.414774
 Mol. C8AA /au·bohr⁸  :     164622.061852
 Mol. α(0) /au        :        123.675737


Wiberg/Mayer (AO) data.
largest (>0.10) Wiberg bond orders for each atom

 ---------------------------------------------------------------------------
     #   Z sym  total        # sym  WBO       # sym  WBO       # sym  WBO
 ---------------------------------------------------------------------------
     1   6 C    3.998 --     2 C    1.029    12 H    0.983    14 H    0.977
                            13 H    0.976
     2   6 C    3.940 --     3 C    1.653    11 S    1.114     1 C    1.029
                            10 C    0.109
     3   6 C    3.985 --     2 C    1.653     4 C    1.187    15 H    0.962
     4   6 C    3.977 --    10 C    1.550     3 C    1.187     5 C    1.094
     5   6 C    3.958 --     6 N    1.371     9 C    1.319     4 C    1.094
     6   7 N    2.910 --     5 C    1.371     7 N    1.158     8 C    0.187
                             9 C    0.120
     7   7 N    3.549 --     8 C    1.273     6 N    1.158    16 H    0.964
     8   6 C    2.933 --     9 C    1.434     7 N    1.273     6 N    0.187
     9   6 C    3.949 --     8 C    1.434     5 C    1.319    17 H    0.966
                             6 N    0.120
    10   6 C    3.912 --     4 C    1.550    11 S    1.113    18 H    0.971
                             2 C    0.109
    11  16 S    2.504 --     2 C    1.114    10 C    1.113
    12   1 H    0.999 --     1 C    0.983
    13   1 H    0.999 --     1 C    0.976
    14   1 H    0.999 --     1 C    0.977
    15   1 H    1.000 --     3 C    0.962
    16   1 H    0.994 --     7 N    0.964
    17   1 H    0.992 --     9 C    0.966
    18   1 H    0.999 --    10 C    0.971
 ---------------------------------------------------------------------------

Topologies differ in total number of bonds
Writing topology from bond orders to xtbtopo.mol

molecular dipole:
                 x           y           z       tot (Debye)
 q only:        3.149      -0.408       0.205
   full:        3.460      -0.439       0.260       8.889
molecular quadrupole (traceless):
                xx          xy          yy          xz          yz          zz
 q only:      -18.441       7.268      12.502       8.189      -3.640       5.939
  q+dip:      -21.732      10.226      14.083      15.791      -4.951       7.649
   full:      -22.372      10.697      15.629      16.125      -5.770       6.744

           -------------------------------------------------
          |                Geometry Summary                 |
           -------------------------------------------------

      molecular mass/u    :      163.2196663
   center of mass at/Å    :       -0.2068105      -0.0801236      -0.3908966
  moments of inertia/u·Å² :        0.1758666E+03   0.9404233E+03   0.1113138E+04
rotational constants/cm⁻¹ :        0.9585468E-01   0.1792558E-01   0.1514424E-01

 * 17 selected distances

     #   Z          #   Z                                           value/Å
     2   6 C        3   6 C                                       1.3518242
     3   6 C        4   6 C                                       1.4307319
     4   6 C        5   6 C                                       1.4378637
     5   6 C        6   7 N                                       1.3443839
     6   7 N        7   7 N                                       1.3576005
     7   7 N        8   6 C                                       1.3678383
     5   6 C        9   6 C                                       1.4104001
     4   6 C       10   6 C                                       1.3637272
     2   6 C       11  16 S                                       1.7451245 (max)
    10   6 C       11  16 S                                       1.7362461
     1   6 C       12   1 H                                       1.0887487
     1   6 C       13   1 H                                       1.0920261
     1   6 C       14   1 H                                       1.0911886
     3   6 C       15   1 H                                       1.0770566
     7   7 N       16   1 H                                       1.0116135 (min)
     9   6 C       17   1 H                                       1.0839370
    10   6 C       18   1 H                                       1.0706435

 * 6 distinct bonds (by element types)

   Z      Z             #   av. dist./Å        max./Å        min./Å
   1 H    6 C           6     1.0839334     1.0920261     1.0706435
   6 C    6 C           5     1.3989094     1.4378637     1.3518242
   1 H    7 N           1     1.0116135     1.0116135     1.0116135
   6 C    7 N           2     1.3561111     1.3678383     1.3443839
   7 N    7 N           1     1.3576005     1.3576005     1.3576005
   6 C   16 S           2     1.7406853     1.7451245     1.7362461


optimized geometry written to: xtbopt.xyz


           -------------------------------------------------
          | TOTAL ENERGY              -29.899856994237 Eh   |
          | GRADIENT NORM               0.000469209579 Eh/α |
          | HOMO-LUMO GAP               0.553970125046 eV   |
           -------------------------------------------------

------------------------------------------------------------------------
 * finished run on 2022/11/02 at 18:13:40.028     
------------------------------------------------------------------------
 total:
 * wall-time:     0 d,  0 h,  0 min,  1.065 sec
 *  cpu-time:     0 d,  0 h,  0 min,  1.027 sec
 * ratio c/w:     0.965 speedup
 SCF:
 * wall-time:     0 d,  0 h,  0 min,  0.073 sec
 *  cpu-time:     0 d,  0 h,  0 min,  0.065 sec
 * ratio c/w:     0.897 speedup
 ANC optimizer:
 * wall-time:     0 d,  0 h,  0 min,  0.939 sec
 *  cpu-time:     0 d,  0 h,  0 min,  0.933 sec
 * ratio c/w:     0.993 speedup

