18
 energy: -29.899856994237 gnorm: 0.000469209579 xtb: 6.4.1 (afa7bdf)
C         3.39013119106791   -0.33833001983587    0.59848087040339
C         2.05557515313683   -0.32364933803503   -0.06598745276930
C         0.85449062120131    0.00982599350747    0.45709836159521
C        -0.23837321683353   -0.09154227088071   -0.46070717567672
C        -1.60675901436530    0.20613467791371   -0.13457726239009
N        -2.58310780994270    0.10132701150088   -1.05279645391104
N        -3.68900693411216    0.45938378188162   -0.35146791118252
C        -3.53685848770474    0.79540960333120    0.96569535230627
C        -2.14239466981073    0.62387465194152    1.10147141109469
C         0.19106825902496   -0.51102616089333   -1.68519289666308
S         1.90429494417439   -0.78710499103970   -1.74163136327127
H         3.29678625029820    0.02452751055581    1.62073082239298
H         3.80086625569985   -1.34988503998211    0.62244105710620
H         4.09782453247274    0.29621327692630    0.06255413747761
H         0.73131495139588    0.32576905438331    1.47937944005135
H        -4.56678945865680    0.45401748129561   -0.85429078067374
H        -1.56492057596924    0.78304464840585    2.00485840666941
H        -0.39414399107684   -0.67798787097651   -2.56606056255926
