      -----------------------------------------------------------      
     |                   =====================                   |     
     |                           x T B                           |     
     |                   =====================                   |     
     |                         S. Grimme                         |     
     |          Mulliken Center for Theoretical Chemistry        |     
     |                    University of Bonn                     |     
      -----------------------------------------------------------      

   * xtb version 6.4.1 (afa7bdf) compiled by 'ehlert@majestix' on 2021-06-10

   xtb is free software: you can redistribute it and/or modify it under
   the terms of the GNU Lesser General Public License as published by
   the Free Software Foundation, either version 3 of the License, or
   (at your option) any later version.
   
   xtb is distributed in the hope that it will be useful,
   but WITHOUT ANY WARRANTY; without even the implied warranty of
   MERCHANTABILITY or FITNESS FOR A PARTICULAR PURPOSE.  See the
   GNU Lesser General Public License for more details.
   
   Cite this work as:
   * C. Bannwarth, E. Caldeweyher, S. Ehlert, A. Hansen, P. Pracht,
     J. Seibert, S. Spicher, S. Grimme, WIREs Comput. Mol. Sci., 2020, 11,
     e01493. DOI: 10.1002/wcms.1493
   
   for GFN2-xTB:
   * C. Bannwarth, S. Ehlert and S. Grimme., J. Chem. Theory Comput., 2019,
     15, 1652-1671. DOI: 10.1021/acs.jctc.8b01176
   for GFN1-xTB:
   * S. Grimme, C. Bannwarth, P. Shushkov, J. Chem. Theory Comput., 2017,
     13, 1989-2009. DOI: 10.1021/acs.jctc.7b00118
   for GFN0-xTB:
   * P. Pracht, E. Caldeweyher, S. Ehlert, S. Grimme, ChemRxiv, 2019, preprint.
     DOI: 10.26434/chemrxiv.8326202.v1
   for GFN-FF:
   * S. Spicher and S. Grimme, Angew. Chem. Int. Ed., 2020, 59, 15665-15673.
     DOI: 10.1002/anie.202004239
   
   for DFT-D4:
   * E. Caldeweyher, C. Bannwarth and S. Grimme, J. Chem. Phys., 2017,
     147, 034112. DOI: 10.1063/1.4993215
   * E. Caldeweyher, S. Ehlert, A. Hansen, H. Neugebauer, S. Spicher,
     C. Bannwarth and S. Grimme, J. Chem. Phys., 2019, 150, 154122.
     DOI: 10.1063/1.5090222
   * E. Caldeweyher, J.-M. Mewes, S. Ehlert and S. Grimme, Phys. Chem. Chem. Phys.
     2020, 22, 8499-8512. DOI: 10.1039/D0CP00502A
   
   for sTDA-xTB:
   * S. Grimme and C. Bannwarth, J. Chem. Phys., 2016, 145, 054103.
     DOI: 10.1063/1.4959605
   
   in the mass-spec context:
   * V. Asgeirsson, C. Bauer and S. Grimme, Chem. Sci., 2017, 8, 4879.
     DOI: 10.1039/c7sc00601b
   * J. Koopman and S. Grimme, ACS Omega 2019, 4, 12, 15120-15133.
     DOI: 10.1021/acsomega.9b02011
   
   for metadynamics refer to:
   * S. Grimme, J. Chem. Theory Comput., 2019, 155, 2847-2862
     DOI: 10.1021/acs.jctc.9b00143
   
   for SPH calculations refer to:
   * S. Spicher and S. Grimme, J. Chem. Theory Comput., 2021, 17, 1701-1714
     DOI: 10.1021/acs.jctc.0c01306
   
   with help from (in alphabetical order)
   P. Atkinson, C. Bannwarth, F. Bohle, G. Brandenburg, E. Caldeweyher
   M. Checinski, S. Dohm, S. Ehlert, S. Ehrlich, I. Gerasimov, J. Koopman
   C. Lavigne, S. Lehtola, F. März, M. Müller, F. Musil, H. Neugebauer
   J. Pisarek, C. Plett, P. Pracht, J. Seibert, P. Shushkov, S. Spicher
   M. Stahn, M. Steiner, T. Strunk, J. Stückrath, T. Rose, and J. Unsleber
   
 * started run on 2022/11/02 at 18:13:35.647     

           -------------------------------------------------
          |                Calculation Setup                |
           -------------------------------------------------

          program call               : /lustre/hpc/kemi/borup/pKalculator/dep/xtb-6.4.1/bin/xtb --gfn 2 /lustre/hpc/kemi/borup/pKalculator/calc/test#-1=4/conf05/test#-1=4_conf05_gfn2.xyz --opt --lmo --chrg -1 --uhf 0
          hostname                   : fend01.cluster
          coordinate file            : /lustre/hpc/kemi/borup/pKalculator/calc/test#-1=4/conf05/test#-1=4_conf05_gfn2.xyz
          omp threads                :                     1
          number of atoms            :                    18
          number of electrons        :                    56
          charge                     :                    -1
          spin                       :                   0.0
          first test random number   :      0.88235509721571

   ID    Z sym.   atoms
    1    6 C      1-5, 8-10
    2    7 N      6, 7
    3   16 S      11
    4    1 H      12-18

           -------------------------------------------------
          |                 G F N 2 - x T B                 |
           -------------------------------------------------

        Reference                      10.1021/acs.jctc.8b01176
      * Hamiltonian:
        H0-scaling (s, p, d)           1.850000    2.230000    2.230000
        zeta-weighting                 0.500000
      * Dispersion:
        s8                             2.700000
        a1                             0.520000
        a2                             5.000000
        s9                             5.000000
      * Repulsion:
        kExp                           1.500000    1.000000
        rExp                           1.000000
      * Coulomb:
        alpha                          2.000000
        third order                    shell-resolved
        anisotropic                    true
        a3                             3.000000
        a5                             4.000000
        cn-shift                       1.200000
        cn-exp                         4.000000
        max-rad                        5.000000


          ...................................................
          :                      SETUP                      :
          :.................................................:
          :  # basis functions                  57          :
          :  # atomic orbitals                  56          :
          :  # shells                           30          :
          :  # electrons                        56          :
          :  max. iterations                   250          :
          :  Hamiltonian                  GFN2-xTB          :
          :  restarted?                      false          :
          :  GBSA solvation                  false          :
          :  PC potential                    false          :
          :  electronic temp.          300.0000000     K    :
          :  accuracy                    1.0000000          :
          :  -> integral cutoff          0.2500000E+02      :
          :  -> integral neglect         0.1000000E-07      :
          :  -> SCF convergence          0.1000000E-05 Eh   :
          :  -> wf. convergence          0.1000000E-03 e    :
          :  Broyden damping             0.4000000          :
          ...................................................

 iter      E             dE          RMSdq      gap      omega  full diag
   1    -30.1350119 -0.301350E+02  0.465E+00    2.65       0.0  T
   2    -30.0835883  0.514236E-01  0.419E+00    0.05       1.0  T
   3    -30.2586908 -0.175102E+00  0.220E+00    1.82       1.0  T
   4    -30.2937774 -0.350866E-01  0.106E+00    0.44       1.0  T
   5    -30.2942851 -0.507659E-03  0.531E-01    0.16       1.0  T
   6    -30.2978035 -0.351836E-02  0.244E-01    0.46       1.0  T
   7    -30.2981519 -0.348427E-03  0.133E-01    0.41       1.0  T
   8    -30.2982794 -0.127513E-03  0.785E-02    0.38       1.0  T
   9    -30.2983316 -0.521691E-04  0.348E-02    0.35       1.0  T
  10    -30.2983472 -0.156827E-04  0.105E-02    0.33       2.2  T
  11    -30.2983478 -0.578361E-06  0.389E-03    0.33       6.1  T
  12    -30.2983479 -0.112788E-06  0.122E-03    0.33      19.3  T
  13    -30.2983479 -0.250456E-09  0.598E-04    0.33      39.4  T
  14    -30.2983479 -0.178488E-08  0.257E-04    0.33      91.8  T

   *** convergence criteria satisfied after 14 iterations ***

         #    Occupation            Energy/Eh            Energy/eV
      -------------------------------------------------------------
         1        2.0000           -0.5516908             -15.0123
       ...           ...                  ...                  ...
        22        2.0000           -0.2564448              -6.9782
        23        2.0000           -0.2507704              -6.8238
        24        2.0000           -0.2451370              -6.6705
        25        2.0000           -0.2338848              -6.3643
        26        2.0000           -0.1821100              -4.9555
        27        2.0000           -0.1603756              -4.3640
        28        1.9964           -0.0956345              -2.6023 (HOMO)
        29        0.0036           -0.0836237              -2.2755 (LUMO)
        30                         -0.0478420              -1.3018
        31                          0.0049781               0.1355
        32                          0.0060977               0.1659
        33                          0.0683425               1.8597
       ...                                ...                  ...
        56                          0.9086595              24.7259
      -------------------------------------------------------------
                  HL-Gap            0.0120107 Eh            0.3268 eV
             Fermi-level           -0.0896291 Eh           -2.4389 eV
 
 localization/xTB-IFF output generation
 averaging CT terms over            1  occ. levels
 averaging CT terms over            1  virt. levels
 dipole moment from electron density (au)
     X       Y       Z   
   2.2927   2.2515  -0.3149  total (Debye):    8.207
cpu  time for init local    0.00 s
wall time for init local    0.00 s
 doing rotations ...
 initialization of trafo matrix to unity

 converged in     35 iterations, threshold :   0.98880069D-06
 doing transformations ...
 lmo centers(Z=2) and atoms on file <lmocent.coord>
 LMO Fii/eV  ncent    charge center   contributions...
    1 sigma -13.37   1.95   5.74968  -0.05889  -0.46849    7N :  0.57    6N :  0.44
    2 sigma -12.83   1.92   6.16046   1.90223  -0.86792    7N :  0.58    8C :  0.43
    3 sigma -12.61   1.97   7.71493   0.55819  -0.67287    7N :  0.56   15H :  0.45
    4 sigma -11.23   2.01   6.19793   4.31356  -1.33843   16H :  0.51    8C :  0.49
    5 sigma -10.43   1.99   2.67827   1.54867  -0.64905    9C :  0.52    5C :  0.48
    6 sigma -10.00   2.01   1.98463   3.73968  -1.04541    9C :  0.50   17H :  0.50
    7 pi     -9.77   2.16   4.13624   2.79779  -1.47194    9C :  0.48    8C :  0.48
    8 pi     -9.76   2.16   4.17892   2.99108  -0.47712    9C :  0.48    8C :  0.48
    9 pi     -9.73   2.12   3.86387  -0.30069   0.13211    6N :  0.55    5C :  0.41
   10 pi     -9.73   2.12   3.82435  -0.47752  -0.77584    6N :  0.55    5C :  0.41
   11 sigma  -9.61   2.01   1.41058  -0.41287  -0.21154    5C :  0.54    4C :  0.45
   12 sigma  -9.61   1.98  -7.52373  -0.49226  -1.11907   12H :  0.51    1C :  0.49
   13 sigma  -9.59   1.98  -7.77048  -1.02296   1.04954   14H :  0.51    1C :  0.49
   14 sigma  -9.54   1.98  -7.06369   1.02307   0.46873   13H :  0.51    1C :  0.50
   15 pi     -9.49   1.52   6.15755   0.92228  -0.67644    7N :  0.80    8C :  0.09
   16 sigma  -9.39   1.95  -5.74444  -0.76803   0.18568    1C :  0.55    2C :  0.46
   17 sigma  -9.33   1.95  -1.77864  -4.05449   0.64708   11S :  0.57   10C :  0.43
   18 sigma  -9.10   2.00   0.83454  -4.49184   0.61566   18H :  0.52   10C :  0.48
   19 sigma  -8.74   1.75  -3.95381  -3.09068   0.55696   11S :  0.69    2C :  0.30
   20 LP     -8.44   1.16  -3.49828  -5.82300  -1.38588   11S :  0.93
   21 sigma  -8.44   2.00  -0.96538  -0.41078  -0.10727    4C :  0.56    3C :  0.43
   22 LP     -8.39   1.16  -3.24298  -4.82099   3.35214   11S :  0.93
   23 LP     -7.91   1.03   5.32545  -2.72089   0.06808    6N :  0.99
   24 pi     -7.90   2.19   0.00623  -2.11603   0.70581   10C :  0.48    4C :  0.48
   25 delpi  -7.88   2.20  -0.03929  -2.31831  -0.29135   10C :  0.48    4C :  0.47
   26 pi     -6.72   2.18  -3.25603  -0.68265   0.58098    2C :  0.55    3C :  0.40
   27 pi     -6.71   2.18  -3.29698  -0.87592  -0.43117    2C :  0.54    3C :  0.40
   28 LP     -4.24   1.30  -3.26044   1.16204  -0.28956    3C :  0.87    2C :  0.09
 starting deloc pi regularization ...
 thr    2.20000000000000      # pi deloc LMO           5
 files:
 coordprot.0/xtbscreen.xyz/xtblmoinfo/lmocent.coord
 with protonation site input, xtbdock and
 LMO center info written
 

 SCC (total)                   0 d,  0 h,  0 min,  0.053 sec
 SCC setup                      ...        0 min,  0.000 sec (  0.574%)
 Dispersion                     ...        0 min,  0.000 sec (  0.444%)
 classical contributions        ...        0 min,  0.000 sec (  0.111%)
 integral evaluation            ...        0 min,  0.005 sec (  8.871%)
 iterations                     ...        0 min,  0.020 sec ( 38.247%)
 molecular gradient             ...        0 min,  0.010 sec ( 18.062%)
 printout                       ...        0 min,  0.018 sec ( 33.588%)

         :::::::::::::::::::::::::::::::::::::::::::::::::::::
         ::                     SUMMARY                     ::
         :::::::::::::::::::::::::::::::::::::::::::::::::::::
         :: total energy             -29.876199725353 Eh    ::
         :: gradient norm              0.107652027686 Eh/a0 ::
         :: HOMO-LUMO gap              0.326828979733 eV    ::
         ::.................................................::
         :: SCC energy               -30.298347941895 Eh    ::
         :: -> isotropic ES            0.116675359632 Eh    ::
         :: -> anisotropic ES          0.009805372700 Eh    ::
         :: -> anisotropic XC          0.017381611940 Eh    ::
         :: -> dispersion             -0.018072830998 Eh    ::
         :: repulsion energy           0.422185929848 Eh    ::
         :: add. restraining           0.000000000000 Eh    ::
         :: total charge              -1.000000000000 e     ::
         :::::::::::::::::::::::::::::::::::::::::::::::::::::

      ----------------------------------------------------------- 
     |                   =====================                   |
     |                        A N C O P T                        |
     |                   =====================                   |
     |               Approximate Normal Coordinate               |
     |                Rational Function Optimizer                |
      ----------------------------------------------------------- 

          ...................................................
          :                      SETUP                      :
          :.................................................:
          :   optimization level            normal          :
          :   max. optcycles                   200          :
          :   ANC micro-cycles                  20          :
          :   degrees of freedom                48          :
          :.................................................:
          :   RF solver                   davidson          :
          :   write xtbopt.log                true          :
          :   linear?                        false          :
          :   energy convergence         0.5000000E-05 Eh   :
          :   grad. convergence          0.1000000E-02 Eh/α :
          :   maximium RF displ.         1.0000000          :
          :   Hlow (freq-cutoff)         0.1000000E-01      :
          :   Hmax (freq-cutoff)         5.0000000          :
          :   S6 in model hess.         20.0000000          :
          ...................................................

generating ANC from model Hessian ...
Using Lindh-Hessian (1995)
 Shifting diagonal of input Hessian by   8.133695596282065E-003
 Lowest  eigenvalues of input Hessian
    0.000000    0.000000    0.000000    0.000000    0.000000    0.000000
    0.010000    0.012085    0.012236    0.015828    0.018414    0.027652
    0.032168    0.034462    0.045246    0.048822    0.052376    0.072567
 Highest eigenvalues
    1.673279    1.826252    1.865129    1.937912    1.986265    2.063888
 

........................................................................
.............................. CYCLE    1 ..............................
........................................................................
   1    -30.2983479 -0.302983E+02  0.155E-04    0.33       0.0  T
   2    -30.2983479  0.871481E-11  0.122E-04    0.33     193.4  T
   3    -30.2983479 -0.170338E-09  0.744E-05    0.33     316.8  T
     SCC iter.                  ...        0 min,  0.004 sec
     gradient                   ...        0 min,  0.009 sec
 * total energy  :   -29.8761997 Eh     change       -0.4628653E-09 Eh
   gradient norm :     0.1076517 Eh/α   predicted     0.0000000E+00 (-100.00%)
   displ. norm   :     0.3223896 α      lambda       -0.2411085E-01
   maximum displ.:     0.1851110 α      in ANC's #9, #31, #20, ...

........................................................................
.............................. CYCLE    2 ..............................
........................................................................
   1    -30.3128419 -0.303128E+02  0.695E-01    0.81       0.0  T
   2    -30.3128482 -0.626503E-05  0.423E-01    0.86       1.0  T
   3    -30.3116555  0.119271E-02  0.342E-01    0.83       1.0  T
   4    -30.3132708 -0.161532E-02  0.591E-02    0.85       1.0  T
   5    -30.3132771 -0.631807E-05  0.369E-02    0.85       1.0  T
   6    -30.3132867 -0.960237E-05  0.940E-03    0.85       2.5  T
   7    -30.3132869 -0.170806E-06  0.606E-03    0.85       3.9  T
   8    -30.3132872 -0.294757E-06  0.320E-03    0.85       7.4  T
   9    -30.3132872 -0.734654E-07  0.967E-04    0.85      24.4  T
  10    -30.3132872 -0.102591E-07  0.298E-04    0.85      79.2  T
     SCC iter.                  ...        0 min,  0.012 sec
     gradient                   ...        0 min,  0.009 sec
 * total energy  :   -29.8923889 Eh     change       -0.1618920E-01 Eh
   gradient norm :     0.0452171 Eh/α   predicted    -0.1330841E-01 ( -17.79%)
   displ. norm   :     0.2471071 α      lambda       -0.5918880E-02
   maximum displ.:     0.1786464 α      in ANC's #9, #7, #17, ...

........................................................................
.............................. CYCLE    3 ..............................
........................................................................
   1    -30.3215449 -0.303215E+02  0.370E-01    1.08       0.0  T
   2    -30.3215559 -0.109534E-04  0.245E-01    1.15       1.0  T
   3    -30.3215271  0.287372E-04  0.172E-01    1.12       1.0  T
   4    -30.3218254 -0.298258E-03  0.403E-02    1.13       1.0  T
   5    -30.3218358 -0.104298E-04  0.204E-02    1.13       1.2  T
   6    -30.3218376 -0.176104E-05  0.827E-03    1.13       2.8  T
   7    -30.3218386 -0.989857E-06  0.369E-03    1.13       6.4  T
   8    -30.3218387 -0.137184E-06  0.176E-03    1.13      13.4  T
   9    -30.3218387 -0.494348E-08  0.599E-04    1.13      39.3  T
  10    -30.3218387 -0.204486E-08  0.189E-04    1.13     124.6  T
     SCC iter.                  ...        0 min,  0.011 sec
     gradient                   ...        0 min,  0.009 sec
 * total energy  :   -29.8959099 Eh     change       -0.3520968E-02 Eh
   gradient norm :     0.0219242 Eh/α   predicted    -0.3140147E-02 ( -10.82%)
   displ. norm   :     0.1297444 α      lambda       -0.9088941E-03
   maximum displ.:     0.0731339 α      in ANC's #3, #9, #7, ...

........................................................................
.............................. CYCLE    4 ..............................
........................................................................
   1    -30.3252817 -0.303253E+02  0.128E-01    1.17       0.0  T
   2    -30.3252788  0.287315E-05  0.957E-02    1.21       1.0  T
   3    -30.3253534 -0.745638E-04  0.479E-02    1.19       1.0  T
   4    -30.3253735 -0.201047E-04  0.198E-02    1.19       1.2  T
   5    -30.3253761 -0.257187E-05  0.659E-03    1.19       3.6  T
   6    -30.3253761 -0.209223E-07  0.414E-03    1.19       5.7  T
   7    -30.3253763 -0.185658E-06  0.169E-03    1.19      13.9  T
   8    -30.3253763 -0.284788E-07  0.771E-04    1.19      30.6  T
   9    -30.3253763 -0.580883E-09  0.293E-04    1.19      80.4  T
     SCC iter.                  ...        0 min,  0.010 sec
     gradient                   ...        0 min,  0.009 sec
 * total energy  :   -29.8966077 Eh     change       -0.6977901E-03 Eh
   gradient norm :     0.0184614 Eh/α   predicted    -0.4620978E-03 ( -33.78%)
   displ. norm   :     0.2028804 α      lambda       -0.1093071E-02
   maximum displ.:     0.1436246 α      in ANC's #3, #7, #9, ...

........................................................................
.............................. CYCLE    5 ..............................
........................................................................
   1    -30.3296923 -0.303297E+02  0.234E-01    1.22       0.0  T
   2    -30.3296384  0.538569E-04  0.183E-01    1.30       1.0  T
   3    -30.3300100 -0.371525E-03  0.857E-02    1.24       1.0  T
   4    -30.3300764 -0.663826E-04  0.388E-02    1.25       1.0  T
   5    -30.3300854 -0.904653E-05  0.100E-02    1.25       2.3  T
   6    -30.3300855 -0.106598E-06  0.650E-03    1.25       3.6  T
   7    -30.3300858 -0.291581E-06  0.335E-03    1.25       7.0  T
   8    -30.3300859 -0.888087E-07  0.140E-03    1.25      16.8  T
   9    -30.3300859 -0.192020E-08  0.603E-04    1.25      39.1  T
  10    -30.3300859 -0.273799E-08  0.132E-04    1.25     178.3  T
     SCC iter.                  ...        0 min,  0.011 sec
     gradient                   ...        0 min,  0.009 sec
 * total energy  :   -29.8973815 Eh     change       -0.7738624E-03 Eh
   gradient norm :     0.0155124 Eh/α   predicted    -0.5690322E-03 ( -26.47%)
   displ. norm   :     0.1787613 α      lambda       -0.7358401E-03
   maximum displ.:     0.1397780 α      in ANC's #3, #7, #4, ...

........................................................................
.............................. CYCLE    6 ..............................
........................................................................
   1    -30.3335002 -0.303335E+02  0.273E-01    1.26       0.0  T
   2    -30.3333396  0.160623E-03  0.225E-01    1.35       1.0  T
   3    -30.3340001 -0.660484E-03  0.994E-02    1.29       1.0  T
   4    -30.3340829 -0.828491E-04  0.447E-02    1.29       1.0  T
   5    -30.3340949 -0.119589E-04  0.956E-03    1.29       2.5  T
   6    -30.3340950 -0.115746E-06  0.522E-03    1.29       4.5  T
   7    -30.3340950 -0.304699E-07  0.343E-03    1.29       6.9  T
   8    -30.3340951 -0.973317E-07  0.125E-03    1.29      18.9  T
   9    -30.3340951 -0.360391E-09  0.754E-04    1.29      31.3  T
  10    -30.3340951 -0.521888E-08  0.151E-04    1.29     155.9  T
     SCC iter.                  ...        0 min,  0.011 sec
     gradient                   ...        0 min,  0.009 sec
 * total energy  :   -29.8979422 Eh     change       -0.5606560E-03 Eh
   gradient norm :     0.0139205 Eh/α   predicted    -0.3796792E-03 ( -32.28%)
   displ. norm   :     0.2171667 α      lambda       -0.8310358E-03
   maximum displ.:     0.1649363 α      in ANC's #3, #5, #4, ...

........................................................................
.............................. CYCLE    7 ..............................
........................................................................
   1    -30.3378399 -0.303378E+02  0.422E-01    1.33       0.0  T
   2    -30.3372143  0.625652E-03  0.367E-01    1.46       1.0  T
   3    -30.3392144 -0.200014E-02  0.148E-01    1.37       1.0  T
   4    -30.3393941 -0.179695E-03  0.668E-02    1.38       1.0  T
   5    -30.3394199 -0.257367E-04  0.140E-02    1.38       1.7  T
   6    -30.3394201 -0.249234E-06  0.721E-03    1.38       3.3  T
   7    -30.3394203 -0.153864E-06  0.345E-03    1.38       6.8  T
   8    -30.3394203 -0.540259E-07  0.210E-03    1.38      11.2  T
   9    -30.3394203 -0.176835E-07  0.919E-04    1.38      25.6  T
  10    -30.3394203 -0.952714E-08  0.205E-04    1.38     115.2  T
     SCC iter.                  ...        0 min,  0.011 sec
     gradient                   ...        0 min,  0.009 sec
 * total energy  :   -29.8986000 Eh     change       -0.6578267E-03 Eh
   gradient norm :     0.0125072 Eh/α   predicted    -0.4351182E-03 ( -33.86%)
   displ. norm   :     0.3259819 α      lambda       -0.1177880E-02
   maximum displ.:     0.2165674 α      in ANC's #3, #5, #34, ...

........................................................................
.............................. CYCLE    8 ..............................
........................................................................
   1    -30.3427921 -0.303428E+02  0.753E-01    1.50       0.0  T
   2    -30.3399632  0.282888E-02  0.686E-01    1.67       1.0  T
   3    -30.3474804 -0.751722E-02  0.262E-01    1.55       1.0  T
   4    -30.3480662 -0.585780E-03  0.110E-01    1.56       1.0  T
   5    -30.3481276 -0.613819E-04  0.246E-02    1.56       1.0  T
   6    -30.3481280 -0.374627E-06  0.154E-02    1.56       1.5  T
   7    -30.3481296 -0.163423E-05  0.642E-03    1.56       3.7  T
   8    -30.3481298 -0.177469E-06  0.372E-03    1.56       6.3  T
   9    -30.3481299 -0.743743E-07  0.162E-03    1.56      14.6  T
  10    -30.3481299 -0.143039E-07  0.338E-04    1.56      69.7  T
  11    -30.3481299 -0.636515E-09  0.154E-04    1.56     153.3  T
     SCC iter.                  ...        0 min,  0.012 sec
     gradient                   ...        0 min,  0.009 sec
 * total energy  :   -29.8996383 Eh     change       -0.1038312E-02 Eh
   gradient norm :     0.0127559 Eh/α   predicted    -0.6515213E-03 ( -37.25%)
   displ. norm   :     0.6645339 α      lambda       -0.2817874E-02
   maximum displ.:     0.3422731 α      in ANC's #3, #34, #40, ...

........................................................................
.............................. CYCLE    9 ..............................
........................................................................
   1    -30.3446417 -0.303446E+02  0.156E+00    1.94       0.0  T
   2    -30.3306982  0.139435E-01  0.149E+00    1.83       1.0  T
   3    -30.3632623 -0.325641E-01  0.600E-01    1.87       1.0  T
   4    -30.3656459 -0.238361E-02  0.178E-01    1.83       1.0  T
   5    -30.3657717 -0.125783E-03  0.593E-02    1.81       1.0  T
   6    -30.3657791 -0.742346E-05  0.406E-02    1.82       1.0  T
   7    -30.3657931 -0.139387E-04  0.134E-02    1.82       1.8  T
   8    -30.3657938 -0.727610E-06  0.641E-03    1.82       3.7  T
   9    -30.3657940 -0.197304E-06  0.317E-03    1.82       7.4  T
  10    -30.3657940 -0.191782E-07  0.814E-04    1.82      28.9  T
  11    -30.3657940 -0.625369E-08  0.279E-04    1.82      84.4  T
     SCC iter.                  ...        0 min,  0.012 sec
     gradient                   ...        0 min,  0.009 sec
 * total energy  :   -29.9025251 Eh     change       -0.2886735E-02 Eh
   gradient norm :     0.0217225 Eh/α   predicted    -0.2031141E-02 ( -29.64%)
   displ. norm   :     0.8865798 α      lambda       -0.4954749E-02
   maximum displ.:     0.3455328 α      in ANC's #34, #3, #40, ...

........................................................................
.............................. CYCLE   10 ..............................
........................................................................
   1    -30.3482475 -0.303482E+02  0.150E+00    2.01       0.0  T
   2    -30.3335302  0.147173E-01  0.147E+00    1.68       1.0  T
   3    -30.3604759 -0.269457E-01  0.674E-01    1.80       1.0  T
   4    -30.3625307 -0.205479E-02  0.129E-01    1.73       1.0  T
   5    -30.3626676 -0.136867E-03  0.663E-02    1.72       1.0  T
   6    -30.3626998 -0.322777E-04  0.331E-02    1.72       1.0  T
   7    -30.3627071 -0.730345E-05  0.108E-02    1.73       2.2  T
   8    -30.3627085 -0.138187E-05  0.370E-03    1.72       6.4  T
   9    -30.3627086 -0.340175E-07  0.174E-03    1.72      13.6  T
  10    -30.3627086 -0.773038E-08  0.601E-04    1.72      39.2  T
  11    -30.3627086 -0.156260E-08  0.276E-04    1.72      85.4  T
     SCC iter.                  ...        0 min,  0.012 sec
     gradient                   ...        0 min,  0.009 sec
 * total energy  :   -29.9028353 Eh     change       -0.3101969E-03 Eh
   gradient norm :     0.0876954 Eh/α   predicted    -0.4424614E-02 (1326.39%)
   displ. norm   :     0.4301257 α      lambda       -0.5481413E-02
   maximum displ.:     0.2490287 α      in ANC's #3, #5, #4, ...

........................................................................
.............................. CYCLE   11 ..............................
........................................................................
   1    -30.3860182 -0.303860E+02  0.546E-01    1.74       0.0  T
   2    -30.3851108  0.907384E-03  0.445E-01    1.81       1.0  T
   3    -30.3865946 -0.148373E-02  0.266E-01    1.78       1.0  T
   4    -30.3871849 -0.590283E-03  0.323E-02    1.80       1.0  T
   5    -30.3871927 -0.784248E-05  0.159E-02    1.80       1.5  T
   6    -30.3871947 -0.195887E-05  0.693E-03    1.80       3.4  T
   7    -30.3871949 -0.234012E-06  0.290E-03    1.80       8.1  T
   8    -30.3871950 -0.102978E-06  0.107E-03    1.80      22.0  T
   9    -30.3871950 -0.960192E-09  0.373E-04    1.80      63.2  T
  10    -30.3871950 -0.421171E-09  0.153E-04    1.80     153.7  T
     SCC iter.                  ...        0 min,  0.011 sec
     gradient                   ...        0 min,  0.010 sec
 * total energy  :   -29.9046992 Eh     change       -0.1863967E-02 Eh
   gradient norm :     0.0432267 Eh/α   predicted    -0.3247757E-02 (  74.24%)
   displ. norm   :     0.6634883 α      lambda       -0.4748614E-02
   maximum displ.:     0.4354400 α      in ANC's #3, #7, #2, ...

........................................................................
.............................. CYCLE   12 ..............................
........................................................................
   1    -30.3579238 -0.303579E+02  0.706E-01    1.74       0.0  T
   2    -30.3571017  0.822048E-03  0.519E-01    1.85       1.0  T
   3    -30.3581032 -0.100146E-02  0.368E-01    1.81       1.0  T
   4    -30.3595265 -0.142335E-02  0.605E-02    1.84       1.0  T
   5    -30.3595516 -0.250922E-04  0.346E-02    1.84       1.0  T
   6    -30.3595574 -0.581178E-05  0.141E-02    1.84       1.7  T
   7    -30.3595592 -0.180644E-05  0.525E-03    1.84       4.5  T
   8    -30.3595595 -0.269031E-06  0.202E-03    1.84      11.7  T
   9    -30.3595595 -0.621117E-08  0.881E-04    1.84      26.7  T
  10    -30.3595595 -0.283635E-08  0.341E-04    1.84      69.0  T
     SCC iter.                  ...        0 min,  0.011 sec
     gradient                   ...        0 min,  0.009 sec
 * total energy  :   -29.8960403 Eh     change        0.8658914E-02 Eh
   gradient norm :     0.1146210 Eh/α   predicted    -0.3419531E-02 (-139.49%)
   displ. norm   :     0.3941164 α      lambda       -0.1549216E-01
   maximum displ.:     0.2512442 α      in ANC's #3, #7, #2, ...

........................................................................
.............................. CYCLE   13 ..............................
........................................................................
   1    -30.3707055 -0.303707E+02  0.496E-01    1.89       0.0  T
   2    -30.3700143  0.691238E-03  0.381E-01    1.81       1.0  T
   3    -30.3707489 -0.734590E-03  0.270E-01    1.84       1.0  T
   4    -30.3715084 -0.759565E-03  0.389E-02    1.81       1.0  T
   5    -30.3715193 -0.108789E-04  0.213E-02    1.81       1.1  T
   6    -30.3715214 -0.205410E-05  0.885E-03    1.82       2.7  T
   7    -30.3715220 -0.666573E-06  0.371E-03    1.82       6.4  T
   8    -30.3715222 -0.152350E-06  0.138E-03    1.82      17.1  T
   9    -30.3715222 -0.258373E-08  0.647E-04    1.82      36.4  T
  10    -30.3715222 -0.268709E-08  0.194E-04    1.82     121.3  T
     SCC iter.                  ...        0 min,  0.011 sec
     gradient                   ...        0 min,  0.009 sec
 * total energy  :   -29.9053696 Eh     change       -0.9329264E-02 Eh
   gradient norm :     0.0297961 Eh/α   predicted    -0.8949255E-02 (  -4.07%)
   displ. norm   :     0.3299558 α      lambda       -0.2548139E-02
   maximum displ.:     0.1878589 α      in ANC's #3, #7, #34, ...

........................................................................
.............................. CYCLE   14 ..............................
........................................................................
   1    -30.3828158 -0.303828E+02  0.415E-01    1.86       0.0  T
   2    -30.3821358  0.679986E-03  0.353E-01    1.78       1.0  T
   3    -30.3833671 -0.123130E-02  0.198E-01    1.81       1.0  T
   4    -30.3836526 -0.285472E-03  0.318E-02    1.79       1.0  T
   5    -30.3836609 -0.831110E-05  0.178E-02    1.79       1.3  T
   6    -30.3836628 -0.189561E-05  0.793E-03    1.79       3.0  T
   7    -30.3836632 -0.385211E-06  0.334E-03    1.79       7.1  T
   8    -30.3836633 -0.144599E-06  0.992E-04    1.79      23.8  T
   9    -30.3836633 -0.337474E-08  0.448E-04    1.79      52.6  T
     SCC iter.                  ...        0 min,  0.010 sec
     gradient                   ...        0 min,  0.009 sec
 * total energy  :   -29.9069201 Eh     change       -0.1550538E-02 Eh
   gradient norm :     0.0413472 Eh/α   predicted    -0.1412782E-02 (  -8.88%)
   displ. norm   :     0.5073034 α      lambda       -0.2076361E-02
   maximum displ.:     0.4646274 α      in ANC's #3, #13, #9, ...

........................................................................
.............................. CYCLE   15 ..............................
........................................................................
   1    -30.3858281 -0.303858E+02  0.264E-01    1.82       0.0  T
   2    -30.3857258  0.102382E-03  0.190E-01    1.82       1.0  T
   3    -30.3857346 -0.884718E-05  0.142E-01    1.83       1.0  T
   4    -30.3859622 -0.227559E-03  0.304E-02    1.81       1.0  T
   5    -30.3859745 -0.123748E-04  0.776E-03    1.82       3.0  T
   6    -30.3859748 -0.218651E-06  0.449E-03    1.82       5.2  T
   7    -30.3859749 -0.160676E-06  0.131E-03    1.82      18.0  T
   8    -30.3859749 -0.979713E-08  0.498E-04    1.82      47.4  T
   9    -30.3859749  0.130054E-09  0.241E-04    1.82      97.6  T
     SCC iter.                  ...        0 min,  0.010 sec
     gradient                   ...        0 min,  0.009 sec
 * total energy  :   -29.9084433 Eh     change       -0.1523189E-02 Eh
   gradient norm :     0.0532869 Eh/α   predicted    -0.1305354E-02 ( -14.30%)
   displ. norm   :     0.5306849 α      lambda       -0.4105751E-02
   maximum displ.:     0.3349755 α      in ANC's #3, #11, #13, ...

........................................................................
.............................. CYCLE   16 ..............................
........................................................................
   1    -30.3890871 -0.303891E+02  0.410E-01    1.82       0.0  T
   2    -30.3883715  0.715617E-03  0.362E-01    1.76       1.0  T
   3    -30.3896789 -0.130747E-02  0.188E-01    1.78       1.0  T
   4    -30.3899013 -0.222328E-03  0.233E-02    1.77       1.0  T
   5    -30.3899044 -0.313937E-05  0.120E-02    1.77       2.0  T
   6    -30.3899053 -0.862291E-06  0.556E-03    1.77       4.2  T
   7    -30.3899055 -0.233888E-06  0.207E-03    1.77      11.4  T
   8    -30.3899055 -0.299162E-07  0.107E-03    1.77      22.1  T
   9    -30.3899055 -0.117496E-08  0.409E-04    1.77      57.6  T
  10    -30.3899055 -0.596170E-09  0.147E-04    1.77     160.1  T
     SCC iter.                  ...        0 min,  0.011 sec
     gradient                   ...        0 min,  0.010 sec
 * total energy  :   -29.9118081 Eh     change       -0.3364788E-02 Eh
   gradient norm :     0.0399384 Eh/α   predicted    -0.2631025E-02 ( -21.81%)
   displ. norm   :     0.5734658 α      lambda       -0.5234493E-02
   maximum displ.:     0.3407208 α      in ANC's #3, #11, #13, ...

........................................................................
.............................. CYCLE   17 ..............................
........................................................................
   1    -30.3939872 -0.303940E+02  0.444E-01    1.75       0.0  T
   2    -30.3936309  0.356380E-03  0.322E-01    1.69       1.0  T
   3    -30.3940672 -0.436378E-03  0.229E-01    1.72       1.0  T
   4    -30.3946041 -0.536850E-03  0.390E-02    1.71       1.0  T
   5    -30.3946158 -0.117592E-04  0.147E-02    1.70       1.6  T
   6    -30.3946171 -0.128335E-05  0.641E-03    1.70       3.7  T
   7    -30.3946174 -0.294222E-06  0.250E-03    1.70       9.4  T
   8    -30.3946175 -0.652799E-07  0.893E-04    1.70      26.4  T
   9    -30.3946175 -0.526608E-09  0.423E-04    1.70      55.7  T
     SCC iter.                  ...        0 min,  0.010 sec
     gradient                   ...        0 min,  0.009 sec
 * total energy  :   -29.9158552 Eh     change       -0.4047057E-02 Eh
   gradient norm :     0.0231767 Eh/α   predicted    -0.3477934E-02 ( -14.06%)
   displ. norm   :     0.6812632 α      lambda       -0.3953327E-02
   maximum displ.:     0.4165873 α      in ANC's #3, #13, #11, ...

........................................................................
.............................. CYCLE   18 ..............................
........................................................................
   1    -30.3845454 -0.303845E+02  0.598E-01    1.70       0.0  T
   2    -30.3837634  0.782051E-03  0.427E-01    1.66       1.0  T
   3    -30.3841726 -0.409224E-03  0.336E-01    1.68       1.0  T
   4    -30.3854409 -0.126830E-02  0.369E-02    1.66       1.0  T
   5    -30.3854485 -0.760142E-05  0.189E-02    1.67       1.2  T
   6    -30.3854506 -0.213471E-05  0.596E-03    1.67       4.0  T
   7    -30.3854509 -0.284701E-06  0.298E-03    1.67       7.9  T
   8    -30.3854510 -0.569846E-07  0.144E-03    1.67      16.3  T
   9    -30.3854510  0.323762E-09  0.486E-04    1.67      48.5  T
  10    -30.3854510 -0.163735E-08  0.187E-04    1.67     126.2  T
     SCC iter.                  ...        0 min,  0.011 sec
     gradient                   ...        0 min,  0.009 sec
 * total energy  :   -29.9182025 Eh     change       -0.2347331E-02 Eh
   gradient norm :     0.0515889 Eh/α   predicted    -0.2894051E-02 (  23.29%)
   displ. norm   :     0.4207069 α      lambda       -0.3766340E-02
   maximum displ.:     0.2961379 α      in ANC's #3, #7, #11, ...

........................................................................
.............................. CYCLE   19 ..............................
........................................................................
   1    -30.4032504 -0.304033E+02  0.278E-01    1.68       0.0  T
   2    -30.4033142 -0.638578E-04  0.164E-01    1.70       1.0  T
   3    -30.4032080  0.106230E-03  0.117E-01    1.69       1.0  T
   4    -30.4033438 -0.135761E-03  0.374E-02    1.69       1.0  T
   5    -30.4033657 -0.219597E-04  0.947E-03    1.70       2.5  T
   6    -30.4033666 -0.869139E-06  0.395E-03    1.70       6.0  T
   7    -30.4033667 -0.109577E-06  0.202E-03    1.70      11.7  T
   8    -30.4033667 -0.280402E-07  0.738E-04    1.70      31.9  T
   9    -30.4033667 -0.283858E-09  0.371E-04    1.70      63.5  T
     SCC iter.                  ...        0 min,  0.010 sec
     gradient                   ...        0 min,  0.009 sec
 * total energy  :   -29.9198947 Eh     change       -0.1692206E-02 Eh
   gradient norm :     0.0295963 Eh/α   predicted    -0.2216478E-02 (  30.98%)
   displ. norm   :     0.4818603 α      lambda       -0.1920925E-02
   maximum displ.:     0.4042947 α      in ANC's #3, #7, #11, ...

........................................................................
.............................. CYCLE   20 ..............................
........................................................................
   1    -30.3978100 -0.303978E+02  0.296E-01    1.70       0.0  T
   2    -30.3977237  0.862924E-04  0.195E-01    1.72       1.0  T
   3    -30.3976999  0.237475E-04  0.158E-01    1.72       1.0  T
   4    -30.3979754 -0.275457E-03  0.317E-02    1.71       1.0  T
   5    -30.3979857 -0.103343E-04  0.874E-03    1.72       2.7  T
   6    -30.3979860 -0.236165E-06  0.386E-03    1.72       6.1  T
   7    -30.3979861 -0.133684E-06  0.147E-03    1.72      16.0  T
   8    -30.3979861 -0.150145E-07  0.808E-04    1.72      29.2  T
   9    -30.3979861 -0.179860E-08  0.269E-04    1.72      87.6  T
     SCC iter.                  ...        0 min,  0.010 sec
     gradient                   ...        0 min,  0.009 sec
 * total energy  :   -29.9213564 Eh     change       -0.1461675E-02 Eh
   gradient norm :     0.0192818 Eh/α   predicted    -0.1183470E-02 ( -19.03%)
   displ. norm   :     0.4481339 α      lambda       -0.1958282E-02
   maximum displ.:     0.3321472 α      in ANC's #3, #7, #11, ...
 * RMSD in coord.:     0.8878294 α      energy gain  -0.4515665E-01 Eh

generating ANC from model Hessian ...
Using Lindh-Hessian (1995)
 Shifting diagonal of input Hessian by   9.399266677937650E-003
 Lowest  eigenvalues of input Hessian
    0.000000    0.000000    0.000000    0.000000    0.000000    0.000000
    0.010000    0.010676    0.010805    0.013619    0.014923    0.016385
    0.021930    0.025460    0.035409    0.047417    0.049748    0.057034
 Highest eigenvalues
    1.724179    1.922270    1.995282    2.058691    2.099464    2.565682
 

........................................................................
.............................. CYCLE   21 ..............................
........................................................................
   1    -30.4061211 -0.304061E+02  0.312E-01    1.76       0.0  T
   2    -30.4060958  0.253169E-04  0.187E-01    1.74       1.0  T
   3    -30.4058491  0.246717E-03  0.172E-01    1.75       1.0  T
   4    -30.4062452 -0.396132E-03  0.286E-02    1.74       1.0  T
   5    -30.4062535 -0.823398E-05  0.126E-02    1.74       1.9  T
   6    -30.4062542 -0.684465E-06  0.403E-03    1.74       5.8  T
   7    -30.4062543 -0.157429E-06  0.185E-03    1.74      12.7  T
   8    -30.4062543 -0.350828E-07  0.665E-04    1.74      35.5  T
   9    -30.4062543  0.284423E-09  0.357E-04    1.74      66.0  T
     SCC iter.                  ...        0 min,  0.010 sec
     gradient                   ...        0 min,  0.010 sec
 * total energy  :   -29.9224939 Eh     change       -0.1137560E-02 Eh
   gradient norm :     0.0278301 Eh/α   predicted     0.0000000E+00 (-100.00%)
   displ. norm   :     0.1582627 α      lambda       -0.8489040E-03
   maximum displ.:     0.1386232 α      in ANC's #2, #6, #4, ...

........................................................................
.............................. CYCLE   22 ..............................
........................................................................
   1    -30.4134768 -0.304135E+02  0.863E-02    1.75       0.0  T
   2    -30.4134860 -0.926329E-05  0.462E-02    1.74       1.0  T
   3    -30.4134802  0.585029E-05  0.319E-02    1.74       1.0  T
   4    -30.4134870 -0.681370E-05  0.172E-02    1.74       1.4  T
   5    -30.4134912 -0.420629E-05  0.399E-03    1.74       5.9  T
   6    -30.4134913 -0.845943E-07  0.147E-03    1.74      16.1  T
   7    -30.4134913 -0.136743E-07  0.507E-04    1.74      46.5  T
   8    -30.4134913 -0.247564E-08  0.214E-04    1.74     110.4  T
     SCC iter.                  ...        0 min,  0.009 sec
     gradient                   ...        0 min,  0.009 sec
 * total energy  :   -29.9230637 Eh     change       -0.5697566E-03 Eh
   gradient norm :     0.0055238 Eh/α   predicted    -0.4350819E-03 ( -23.64%)
   displ. norm   :     0.2164643 α      lambda       -0.4718114E-03
   maximum displ.:     0.1806151 α      in ANC's #2, #6, #4, ...

........................................................................
.............................. CYCLE   23 ..............................
........................................................................
   1    -30.4156570 -0.304157E+02  0.102E-01    1.74       0.0  T
   2    -30.4156574 -0.436788E-06  0.594E-02    1.73       1.0  T
   3    -30.4156368  0.206220E-04  0.500E-02    1.74       1.0  T
   4    -30.4156707 -0.339264E-04  0.124E-02    1.73       1.9  T
   5    -30.4156722 -0.148707E-05  0.450E-03    1.73       5.2  T
   6    -30.4156723 -0.120093E-06  0.173E-03    1.73      13.6  T
   7    -30.4156724 -0.281744E-07  0.519E-04    1.73      45.4  T
   8    -30.4156724 -0.194018E-08  0.223E-04    1.73     105.7  T
     SCC iter.                  ...        0 min,  0.009 sec
     gradient                   ...        0 min,  0.009 sec
 * total energy  :   -29.9234372 Eh     change       -0.3735146E-03 Eh
   gradient norm :     0.0096873 Eh/α   predicted    -0.2469619E-03 ( -33.88%)
   displ. norm   :     0.2928704 α      lambda       -0.4904922E-03
   maximum displ.:     0.2304610 α      in ANC's #2, #6, #4, ...

........................................................................
.............................. CYCLE   24 ..............................
........................................................................
   1    -30.4151792 -0.304152E+02  0.159E-01    1.73       0.0  T
   2    -30.4151767  0.247255E-05  0.951E-02    1.73       1.0  T
   3    -30.4150993  0.774484E-04  0.826E-02    1.73       1.0  T
   4    -30.4152024 -0.103138E-03  0.138E-02    1.73       1.7  T
   5    -30.4152045 -0.211358E-05  0.581E-03    1.73       4.1  T
   6    -30.4152047 -0.214996E-06  0.201E-03    1.73      11.7  T
   7    -30.4152048 -0.418301E-07  0.713E-04    1.73      33.1  T
   8    -30.4152048 -0.257256E-08  0.310E-04    1.73      75.9  T
     SCC iter.                  ...        0 min,  0.009 sec
     gradient                   ...        0 min,  0.009 sec
 * total energy  :   -29.9238391 Eh     change       -0.4018512E-03 Eh
   gradient norm :     0.0094707 Eh/α   predicted    -0.2662812E-03 ( -33.74%)
   displ. norm   :     0.3592649 α      lambda       -0.5154375E-03
   maximum displ.:     0.2863945 α      in ANC's #2, #6, #4, ...

........................................................................
.............................. CYCLE   25 ..............................
........................................................................
   1    -30.4136472 -0.304136E+02  0.187E-01    1.73       0.0  T
   2    -30.4136429  0.430234E-05  0.114E-01    1.73       1.0  T
   3    -30.4135263  0.116659E-03  0.100E-01    1.73       1.0  T
   4    -30.4136779 -0.151625E-03  0.149E-02    1.72       1.6  T
   5    -30.4136812 -0.329017E-05  0.480E-03    1.73       4.9  T
   6    -30.4136813 -0.787573E-07  0.213E-03    1.73      11.1  T
   7    -30.4136813 -0.441526E-07  0.771E-04    1.73      30.6  T
   8    -30.4136813 -0.242292E-08  0.318E-04    1.73      74.2  T
     SCC iter.                  ...        0 min,  0.009 sec
     gradient                   ...        0 min,  0.009 sec
 * total energy  :   -29.9242463 Eh     change       -0.4072116E-03 Eh
   gradient norm :     0.0074718 Eh/α   predicted    -0.2909920E-03 ( -28.54%)
   displ. norm   :     0.3237876 α      lambda       -0.4025163E-03
   maximum displ.:     0.2722285 α      in ANC's #2, #6, #4, ...

........................................................................
.............................. CYCLE   26 ..............................
........................................................................
   1    -30.4133178 -0.304133E+02  0.167E-01    1.73       0.0  T
   2    -30.4133143  0.358752E-05  0.103E-01    1.73       1.0  T
   3    -30.4132118  0.102429E-03  0.892E-02    1.73       1.0  T
   4    -30.4133377 -0.125877E-03  0.115E-02    1.73       2.0  T
   5    -30.4133398 -0.206029E-05  0.377E-03    1.73       6.3  T
   6    -30.4133398 -0.455803E-07  0.173E-03    1.73      13.6  T
   7    -30.4133398 -0.254085E-07  0.622E-04    1.73      37.9  T
   8    -30.4133398 -0.158323E-08  0.278E-04    1.73      84.9  T
     SCC iter.                  ...        0 min,  0.009 sec
     gradient                   ...        0 min,  0.010 sec
 * total energy  :   -29.9245672 Eh     change       -0.3209233E-03 Eh
   gradient norm :     0.0066260 Eh/α   predicted    -0.2223621E-03 ( -30.71%)
   displ. norm   :     0.2701372 α      lambda       -0.3014244E-03
   maximum displ.:     0.2380518 α      in ANC's #2, #6, #8, ...

........................................................................
.............................. CYCLE   27 ..............................
........................................................................
   1    -30.4150280 -0.304150E+02  0.134E-01    1.74       0.0  T
   2    -30.4150263  0.174373E-05  0.790E-02    1.73       1.0  T
   3    -30.4149616  0.646044E-04  0.668E-02    1.73       1.0  T
   4    -30.4150371 -0.754205E-04  0.830E-03    1.73       2.8  T
   5    -30.4150373 -0.265749E-06  0.529E-03    1.73       4.5  T
   6    -30.4150376 -0.279901E-06  0.104E-03    1.73      22.7  T
   7    -30.4150376 -0.111928E-07  0.505E-04    1.73      46.7  T
   8    -30.4150376 -0.969855E-09  0.257E-04    1.73      91.6  T
     SCC iter.                  ...        0 min,  0.009 sec
     gradient                   ...        0 min,  0.009 sec
 * total energy  :   -29.9248086 Eh     change       -0.2413846E-03 Eh
   gradient norm :     0.0038987 Eh/α   predicted    -0.1617120E-03 ( -33.01%)
   displ. norm   :     0.2551633 α      lambda       -0.2155484E-03
   maximum displ.:     0.2248645 α      in ANC's #2, #8, #7, ...

........................................................................
.............................. CYCLE   28 ..............................
........................................................................
   1    -30.4159206 -0.304159E+02  0.144E-01    1.74       0.0  T
   2    -30.4159186  0.200466E-05  0.826E-02    1.74       1.0  T
   3    -30.4158481  0.705490E-04  0.687E-02    1.74       1.0  T
   4    -30.4159296 -0.815111E-04  0.925E-03    1.74       2.5  T
   5    -30.4159295  0.611362E-07  0.561E-03    1.74       4.2  T
   6    -30.4159299 -0.359095E-06  0.915E-04    1.74      25.8  T
   7    -30.4159299 -0.910303E-08  0.394E-04    1.74      59.8  T
     SCC iter.                  ...        0 min,  0.008 sec
     gradient                   ...        0 min,  0.009 sec
 * total energy  :   -29.9249814 Eh     change       -0.1728628E-03 Eh
   gradient norm :     0.0042884 Eh/α   predicted    -0.1147919E-03 ( -33.59%)
   displ. norm   :     0.2124809 α      lambda       -0.1339131E-03
   maximum displ.:     0.1909590 α      in ANC's #2, #7, #8, ...

........................................................................
.............................. CYCLE   29 ..............................
........................................................................
   1    -30.4163784 -0.304164E+02  0.117E-01    1.75       0.0  T
   2    -30.4163775  0.846234E-06  0.661E-02    1.74       1.0  T
   3    -30.4163355  0.420530E-04  0.532E-02    1.74       1.0  T
   4    -30.4163842 -0.487365E-04  0.856E-03    1.74       2.8  T
   5    -30.4163843 -0.149253E-06  0.447E-03    1.74       5.3  T
   6    -30.4163845 -0.121212E-06  0.110E-03    1.74      21.4  T
   7    -30.4163845 -0.185824E-07  0.335E-04    1.74      70.4  T
   8    -30.4163845 -0.272767E-09  0.189E-04    1.74     124.7  T
     SCC iter.                  ...        0 min,  0.009 sec
     gradient                   ...        0 min,  0.009 sec
 * total energy  :   -29.9250850 Eh     change       -0.1035443E-03 Eh
   gradient norm :     0.0027221 Eh/α   predicted    -0.6998078E-04 ( -32.41%)
   displ. norm   :     0.1833087 α      lambda       -0.7296647E-04
   maximum displ.:     0.1630310 α      in ANC's #2, #8, #7, ...

........................................................................
.............................. CYCLE   30 ..............................
........................................................................
   1    -30.4164799 -0.304165E+02  0.107E-01    1.75       0.0  T
   2    -30.4164791  0.782497E-06  0.607E-02    1.74       1.0  T
   3    -30.4164436  0.355499E-04  0.481E-02    1.74       1.0  T
   4    -30.4164840 -0.404318E-04  0.692E-03    1.74       3.4  T
   5    -30.4164841 -0.602632E-07  0.349E-03    1.74       6.8  T
   6    -30.4164842 -0.779794E-07  0.804E-04    1.74      29.3  T
   7    -30.4164842 -0.987772E-08  0.260E-04    1.74      90.7  T
     SCC iter.                  ...        0 min,  0.008 sec
     gradient                   ...        0 min,  0.009 sec
 * total energy  :   -29.9251362 Eh     change       -0.5126000E-04 Eh
   gradient norm :     0.0019775 Eh/α   predicted    -0.3771006E-04 ( -26.43%)
   displ. norm   :     0.1447103 α      lambda       -0.2117118E-04
   maximum displ.:     0.1324242 α      in ANC's #2, #7, #8, ...

........................................................................
.............................. CYCLE   31 ..............................
........................................................................
   1    -30.4170982 -0.304171E+02  0.751E-02    1.74       0.0  T
   2    -30.4170978  0.404529E-06  0.429E-02    1.74       1.0  T
   3    -30.4170799  0.179140E-04  0.341E-02    1.74       1.0  T
   4    -30.4171003 -0.204213E-04  0.476E-03    1.74       5.0  T
   5    -30.4171003 -0.445089E-07  0.217E-03    1.74      10.9  T
   6    -30.4171004 -0.230944E-07  0.584E-04    1.74      40.4  T
   7    -30.4171004 -0.536147E-08  0.161E-04    1.74     146.0  T
     SCC iter.                  ...        0 min,  0.008 sec
     gradient                   ...        0 min,  0.009 sec
 * total energy  :   -29.9251524 Eh     change       -0.1620393E-04 Eh
   gradient norm :     0.0014130 Eh/α   predicted    -0.1068524E-04 ( -34.06%)
   displ. norm   :     0.0355253 α      lambda       -0.3358763E-05
   maximum displ.:     0.0276387 α      in ANC's #2, #6, #11, ...

........................................................................
.............................. CYCLE   32 ..............................
........................................................................
   1    -30.4169998 -0.304170E+02  0.255E-02    1.74       0.0  T
   2    -30.4169998 -0.565011E-07  0.151E-02    1.74       1.6  T
   3    -30.4169981  0.170362E-05  0.103E-02    1.74       2.3  T
   4    -30.4170000 -0.186856E-05  0.164E-03    1.74      14.4  T
   5    -30.4170000 -0.397640E-07  0.490E-04    1.74      48.1  T
   6    -30.4170000 -0.624684E-09  0.195E-04    1.74     121.0  T
     SCC iter.                  ...        0 min,  0.007 sec
     gradient                   ...        0 min,  0.009 sec
 * total energy  :   -29.9251541 Eh     change       -0.1704938E-05 Eh
   gradient norm :     0.0011132 Eh/α   predicted    -0.1679108E-05 (  -1.51%)
   displ. norm   :     0.0096452 α      lambda       -0.1490635E-05
   maximum displ.:     0.0060699 α      in ANC's #8, #7, #3, ...

........................................................................
.............................. CYCLE   33 ..............................
........................................................................
   1    -30.4171912 -0.304172E+02  0.998E-03    1.74       0.0  T
   2    -30.4171913 -0.206344E-07  0.551E-03    1.74       4.3  T
   3    -30.4171911  0.151549E-06  0.327E-03    1.74       7.2  T
   4    -30.4171913 -0.167935E-06  0.826E-04    1.74      28.5  T
   5    -30.4171913 -0.429511E-08  0.421E-04    1.74      55.9  T
     SCC iter.                  ...        0 min,  0.006 sec
     gradient                   ...        0 min,  0.009 sec
 * total energy  :   -29.9251556 Eh     change       -0.1411757E-05 Eh
   gradient norm :     0.0002611 Eh/α   predicted    -0.7453412E-06 ( -47.20%)
   displ. norm   :     0.0104573 α      lambda       -0.5414920E-06
   maximum displ.:     0.0052560 α      in ANC's #3, #6, #2, ...

   *** GEOMETRY OPTIMIZATION CONVERGED AFTER 33 ITERATIONS ***

------------------------------------------------------------------------
 total energy gain   :        -0.0489558 Eh      -30.7203 kcal/mol
 total RMSD          :         1.2982725 a0        0.6870 Å
 total power (kW/mol):        -3.8949555 (step) -157.7906 (real)
------------------------------------------------------------------------

 ANCopt (total)                0 d,  0 h,  0 min,  0.815 sec
 optimizer setup                ...        0 min,  0.001 sec (  0.061%)
 model hessian                  ...        0 min,  0.004 sec (  0.474%)
 ANC generation                 ...        0 min,  0.001 sec (  0.174%)
 coordinate transformation      ...        0 min,  0.000 sec (  0.057%)
 single point calculation       ...        0 min,  0.794 sec ( 97.426%)
 optimization log               ...        0 min,  0.006 sec (  0.688%)
 hessian update                 ...        0 min,  0.000 sec (  0.057%)
 rational function              ...        0 min,  0.006 sec (  0.791%)

================
 final structure:
================
18
 xtb: 6.4.1 (afa7bdf)
C        -3.60042862709707    0.52098291093680   -0.04986384375571
C        -2.26119643980755   -0.03916127215795   -0.01091308200568
C        -1.15369311372119   -0.51201190303518    0.02302480511093
C         0.14190960663176   -1.06754820528453    0.06543830004040
C         1.24006209997617   -0.16807748943739   -0.14469736031154
N         2.52580244812871   -0.52833922255319   -0.13412133868351
N         3.22528654238031    0.60019708782800   -0.36882459218905
C         2.41962123045773    1.67718810675345   -0.52982043759631
C         1.13591040708545    1.23294815249024   -0.39454299722479
C         0.34483301640450   -2.40887157163526    0.29673614391501
S        -0.82205403053659   -3.58599185813470    0.56031623204544
H        -4.10880367350218    0.24016587125603   -0.97652132051317
H        -3.56026046520403    1.61259818089909    0.00666295859707
H        -4.19046822806700    0.15075722885426    0.79184915497134
H         4.22995497518732    0.56349230235555   -0.40453374779786
H         2.82433206136712    2.65376818967136   -0.72429742549380
H         0.22870856878772    1.79959676778807   -0.45913491267043
H         1.38048562152930   -2.74169227659454    0.31050546356159
 
 Bond Distances (Angstroems)
 ---------------------------
C1-C2=1.4522         C1-H12=1.0936        C1-H13=1.0938        C1-H14=1.0926        C2-C1=1.4522         C2-C3=1.2047         
C3-C2=1.2047         C3-C4=1.4103         C4-C3=1.4103         C4-C5=1.4350         C4-C10=1.3762        C5-C4=1.4350         
C5-N6=1.3353         C5-C9=1.4269         N6-C5=1.3353         N6-N7=1.3483         N7-N6=1.3483         N7-C8=1.3546         
N7-H15=1.0060        C8-N7=1.3546         C8-C9=1.3651         C8-H16=1.0749        C9-C5=1.4269         C9-C8=1.3651         
C9-H17=1.0716        C10-C4=1.3762        C10-S11=1.6783       C10-H18=1.0879       S11-C10=1.6783       H12-C1=1.0936        
H13-C1=1.0938        H14-C1=1.0926        H15-N7=1.0060        H16-C8=1.0749        H17-C9=1.0716        H18-C10=1.0879       
 C  H  Rav=1.0857 sigma=0.0091  Rmin=1.0716  Rmax=1.0938     6
 C  C  Rav=1.3815 sigma=0.0777  Rmin=1.2047  Rmax=1.4522     7
 N  H  Rav=1.0060 sigma=0.0000  Rmin=1.0060  Rmax=1.0060     1
 N  C  Rav=1.3449 sigma=0.0096  Rmin=1.3353  Rmax=1.3546     2
 N  N  Rav=1.3483 sigma=0.0000  Rmin=1.3483  Rmax=1.3483     1
 S  C  Rav=1.6783 sigma=0.0000  Rmin=1.6783  Rmax=1.6783     1
 
 selected bond angles (degree)
 --------------------
H12-C1-C2=110.63               H13-C1-C2=110.47               H13-C1-H12=108.49              H14-C1-C2=110.28               
H14-C1-H12=108.34              H14-C1-H13=108.55              C3-C2-C1=179.57                C4-C3-C2=179.86                
C5-C4-C3=116.85                C10-C4-C3=121.63               C10-C4-C5=121.51               N6-C5-C4=124.51                
C9-C5-C4=125.82                C9-C5-N6=109.67                N7-N6-C5=105.80                C8-N7-N6=112.19                
H15-N7-N6=119.59               H15-N7-C8=128.23               C9-C8-N7=106.79                H16-C8-N7=121.33               
H16-C8-C9=131.89               C8-C9-C5=105.56                H17-C9-C5=126.27               H17-C9-C8=128.17               
S11-C10-C4=127.41              H18-C10-C4=116.15              H18-C10-S11=116.44             
 
 selected dihedral angles (degree)
 ---------------------------------
C3-C2-C1-H12=286.03           C3-C2-C1-H13=165.89           C3-C2-C1-H14= 45.88           C4-C3-C2-C1=319.52            
C5-C4-C3-C2=220.51            C10-C4-C3-C2= 40.54           N6-C5-C4-C3=179.86            N6-C5-C4-C10=359.83           
C9-C5-C4-C3=359.86            C9-C5-C4-C10=179.83           N7-N6-C5-C4=180.00            N7-N6-C5-C9=  0.00            
C8-N7-N6-C5=  0.00            H15-N7-N6-C5=179.97           C9-C8-N7-N6=  0.00            C9-C8-N7-H15=180.03           
H16-C8-N7-N6=180.00           H16-C8-N7-H15=  0.04          C8-C9-C5-C4=179.99            C8-C9-C5-N6=  0.00            
H17-C9-C5-C4=359.97           H17-C9-C5-N6=179.97           C5-C9-C8-N7=  0.00            C5-C9-C8-H16=180.00           
H17-C9-C8-N7=180.03           H17-C9-C8-H16=  0.02          S11-C10-C4-C3=359.94          S11-C10-C4-C5=179.97          
H18-C10-C4-C3=179.99          H18-C10-C4-C5=  0.00          
           -------------------------------------------------
          |                Final Singlepoint                |
           -------------------------------------------------

          ...................................................
          :                      SETUP                      :
          :.................................................:
          :  # basis functions                  57          :
          :  # atomic orbitals                  56          :
          :  # shells                           30          :
          :  # electrons                        56          :
          :  max. iterations                   250          :
          :  Hamiltonian                  GFN2-xTB          :
          :  restarted?                      false          :
          :  GBSA solvation                  false          :
          :  PC potential                    false          :
          :  electronic temp.          300.0000000     K    :
          :  accuracy                    1.0000000          :
          :  -> integral cutoff          0.2500000E+02      :
          :  -> integral neglect         0.1000000E-07      :
          :  -> SCF convergence          0.1000000E-05 Eh   :
          :  -> wf. convergence          0.1000000E-03 e    :
          :  Broyden damping             0.4000000          :
          ...................................................

 iter      E             dE          RMSdq      gap      omega  full diag
   1    -30.4171913 -0.304172E+02  0.856E-05    1.74       0.0  T
   2    -30.4171913 -0.154330E-10  0.677E-05    1.74     348.1  T
   3    -30.4171913 -0.656186E-10  0.249E-05    1.74     947.1  T

   *** convergence criteria satisfied after 3 iterations ***

         #    Occupation            Energy/Eh            Energy/eV
      -------------------------------------------------------------
         1        2.0000           -0.5533252             -15.0567
       ...           ...                  ...                  ...
        22        2.0000           -0.2612895              -7.1100
        23        2.0000           -0.2560721              -6.9681
        24        2.0000           -0.2487814              -6.7697
        25        2.0000           -0.2385213              -6.4905
        26        2.0000           -0.2277012              -6.1961
        27        2.0000           -0.1590116              -4.3269
        28        2.0000           -0.1487062              -4.0465 (HOMO)
        29                         -0.0847000              -2.3048 (LUMO)
        30                         -0.0596347              -1.6227
        31                         -0.0085943              -0.2339
        32                          0.0078759               0.2143
        33                          0.0545105               1.4833
       ...                                ...                  ...
        56                          1.5772061              42.9180
      -------------------------------------------------------------
                  HL-Gap            0.0640062 Eh            1.7417 eV
             Fermi-level           -0.1167031 Eh           -3.1757 eV
 
 localization/xTB-IFF output generation
 averaging CT terms over            1  occ. levels
 averaging CT terms over            1  virt. levels
 dipole moment from electron density (au)
     X       Y       Z   
   1.1158   5.1381  -0.7435  total (Debye):   13.497
cpu  time for init local    0.00 s
wall time for init local    0.00 s
 doing rotations ...
 initialization of trafo matrix to unity
iteration     50  convergence  0.36426909D-04

 converged in     78 iterations, threshold :   0.99729600D-06
 doing transformations ...
 lmo centers(Z=2) and atoms on file <lmocent.coord>
 LMO Fii/eV  ncent    charge center   contributions...
    1 sigma -13.23   1.95   5.49505   0.11384  -0.51239    7N :  0.57    6N :  0.44
    2 sigma -12.99   1.92   5.48424   2.08180  -0.92445    7N :  0.58    8C :  0.43
    3 sigma -12.70   1.97   7.27013   1.10244  -0.74591    7N :  0.56   15H :  0.44
    4 sigma -11.33   2.01   5.08907   4.41421  -1.24927   16H :  0.51    8C :  0.49
    5 sigma -10.79   1.98  -5.55253   0.46809  -0.06045    1C :  0.52    2C :  0.48
    6 sigma -10.67   2.00  -6.71949   2.34027  -0.02256   13H :  0.50    1C :  0.50
    7 sigma -10.59   2.00   2.14207   1.03377  -0.51256    9C :  0.52    5C :  0.48
    8 sigma -10.58   2.00  -7.40283   0.61777  -1.25240    1C :  0.50   12H :  0.50
    9 sigma -10.54   2.00  -7.50407   0.50770   0.95827    1C :  0.50   14H :  0.50
   10 sigma -10.28   2.01   0.99770   3.05009  -0.82784   17H :  0.50    9C :  0.49
   11 sigma -10.22   2.04   1.31143  -1.14936  -0.07820    5C :  0.52    4C :  0.47
   12 sigma -10.16   2.02  -0.99160  -1.45977   0.07901    3C :  0.52    4C :  0.47
   13 pi     -9.86   2.15   3.26790   2.56224  -1.35142    9C :  0.49    8C :  0.47
   14 pi     -9.84   2.16   3.30715   2.73347  -0.34758    9C :  0.49    8C :  0.47
   15 pi     -9.76   2.10   3.69152  -0.72274  -0.72695    6N :  0.56    5C :  0.41
   16 pi     -9.74   2.11   3.72923  -0.55325   0.18285    6N :  0.55    5C :  0.41
   17 pi     -9.57   1.53   5.69594   1.24275  -0.59216    7N :  0.80    8C :  0.11
   18 sigma  -9.01   1.99   1.96997  -4.97816   0.57862   18H :  0.51   10C :  0.49
   19 pi     -8.60   2.02  -3.01262   0.03276  -0.06459    2C :  0.51    3C :  0.49
   20 pi     -8.44   2.05  -3.36630  -0.87569  -0.45396    2C :  0.51    3C :  0.48
   21 pi     -8.43   2.05  -3.34291  -0.74432   0.55905    2C :  0.51    3C :  0.48
   22 delpi  -8.32   2.29   0.42365  -2.85074   0.75650    4C :  0.54   10C :  0.39
   23 delpi  -8.32   2.28   0.38199  -3.01906  -0.19265    4C :  0.54   10C :  0.39
   24 LP     -7.83   1.02  -0.24317  -9.51735   1.48984   11S :  0.99
   25 LP     -7.78   1.02   5.63241  -2.62166   0.00524    6N :  0.99
   26 LP     -7.74   1.03  -4.42011  -5.74737   1.00125   11S :  0.99
   27 pi     -7.69   1.83  -0.73879  -5.97727   0.31290   11S :  0.66   10C :  0.33
   28 pi     -7.65   1.84  -0.69212  -5.78320   1.40903   11S :  0.66   10C :  0.33
 starting deloc pi regularization ...
 thr    2.20000000000000      # pi deloc LMO           8
 files:
 coordprot.0/xtbscreen.xyz/xtblmoinfo/lmocent.coord
 with protonation site input, xtbdock and
 LMO center info written
 

 SCC (total)                   0 d,  0 h,  0 min,  0.036 sec
 SCC setup                      ...        0 min,  0.000 sec (  0.417%)
 Dispersion                     ...        0 min,  0.000 sec (  0.318%)
 classical contributions        ...        0 min,  0.000 sec (  0.094%)
 integral evaluation            ...        0 min,  0.004 sec ( 12.221%)
 iterations                     ...        0 min,  0.004 sec ( 11.229%)
 molecular gradient             ...        0 min,  0.009 sec ( 26.347%)
 printout                       ...        0 min,  0.018 sec ( 49.246%)

         :::::::::::::::::::::::::::::::::::::::::::::::::::::
         ::                     SUMMARY                     ::
         :::::::::::::::::::::::::::::::::::::::::::::::::::::
         :: total energy             -29.925155562925 Eh    ::
         :: gradient norm              0.000259671875 Eh/a0 ::
         :: HOMO-LUMO gap              1.741696845177 eV    ::
         ::.................................................::
         :: SCC energy               -30.417191278906 Eh    ::
         :: -> isotropic ES            0.116889456797 Eh    ::
         :: -> anisotropic ES          0.012151837308 Eh    ::
         :: -> anisotropic XC          0.022257890864 Eh    ::
         :: -> dispersion             -0.017126740872 Eh    ::
         :: repulsion energy           0.492027931549 Eh    ::
         :: add. restraining           0.000000000000 Eh    ::
         :: total charge              -1.000000000000 e     ::
         :::::::::::::::::::::::::::::::::::::::::::::::::::::

           -------------------------------------------------
          |                Property Printout                |
           -------------------------------------------------

    * Orbital Energies and Occupations

         #    Occupation            Energy/Eh            Energy/eV
      -------------------------------------------------------------
         1        2.0000           -0.5533252             -15.0567
       ...           ...                  ...                  ...
        16        2.0000           -0.3492282              -9.5030
        17        2.0000           -0.3417009              -9.2982
        18        2.0000           -0.3251558              -8.8479
        19        2.0000           -0.2991854              -8.1412
        20        2.0000           -0.2980754              -8.1110
        21        2.0000           -0.2680656              -7.2944
        22        2.0000           -0.2612895              -7.1100
        23        2.0000           -0.2560721              -6.9681
        24        2.0000           -0.2487814              -6.7697
        25        2.0000           -0.2385213              -6.4905
        26        2.0000           -0.2277012              -6.1961
        27        2.0000           -0.1590116              -4.3269
        28        2.0000           -0.1487062              -4.0465 (HOMO)
        29                         -0.0847000              -2.3048 (LUMO)
        30                         -0.0596347              -1.6227
        31                         -0.0085943              -0.2339
        32                          0.0078759               0.2143
        33                          0.0545105               1.4833
        34                          0.0901242               2.4524
        35                          0.1338280               3.6416
        36                          0.2037223               5.5436
        37                          0.2061149               5.6087
        38                          0.2072655               5.6400
        39                          0.2114466               5.7538
       ...                                ...                  ...
        56                          1.5772061              42.9180
      -------------------------------------------------------------
                  HL-Gap            0.0640062 Eh            1.7417 eV
             Fermi-level           -0.1167031 Eh           -3.1757 eV

     #   Z          covCN         q      C6AA      α(0)
     1   6 C        3.752    -0.063    21.767     6.653
     2   6 C        1.960    -0.095    33.697     9.374
     3   6 C        1.984    -0.039    32.109     9.151
     4   6 C        2.987    -0.043    29.068     8.844
     5   6 C        3.137     0.070    26.222     8.381
     6   7 N        1.981    -0.284    28.178     7.872
     7   7 N        2.972    -0.029    21.809     6.936
     8   6 C        2.980    -0.014    28.366     8.736
     9   6 C        3.019    -0.084    30.088     8.998
    10   6 C        2.899     0.068    26.488     8.439
    11  16 S        1.018    -0.637   168.333    21.944
    12   1 H        0.924     0.018     2.763     2.599
    13   1 H        0.924     0.012     2.858     2.644
    14   1 H        0.924     0.022     2.698     2.569
    15   1 H        0.860     0.126     1.579     1.968
    16   1 H        0.926    -0.011     3.255     2.821
    17   1 H        0.926     0.000     3.055     2.733
    18   1 H        0.925    -0.014     3.317     2.848

 Mol. C6AA /au·bohr⁶  :       5940.925387
 Mol. C8AA /au·bohr⁸  :     165363.295979
 Mol. α(0) /au        :        123.510665


Wiberg/Mayer (AO) data.
largest (>0.10) Wiberg bond orders for each atom

 ---------------------------------------------------------------------------
     #   Z sym  total        # sym  WBO       # sym  WBO       # sym  WBO
 ---------------------------------------------------------------------------
     1   6 C    3.997 --     2 C    1.053    13 H    0.973    14 H    0.972
                            12 H    0.972
     2   6 C    3.965 --     3 C    2.720     1 C    1.053
     3   6 C    3.977 --     2 C    2.720     4 C    1.130
     4   6 C    3.959 --    10 C    1.466     3 C    1.130     5 C    1.126
                            11 S    0.129
     5   6 C    3.971 --     6 N    1.422     9 C    1.248     4 C    1.126
     6   7 N    2.915 --     5 C    1.422     7 N    1.153     8 C    0.155
     7   7 N    3.551 --     8 C    1.242     6 N    1.153    15 H    0.955
                             9 C    0.101
     8   6 C    3.949 --     9 C    1.562     7 N    1.242    16 H    0.968
                             6 N    0.155
     9   6 C    3.974 --     8 C    1.562     5 C    1.248    17 H    0.974
                             7 N    0.101
    10   6 C    3.975 --     4 C    1.466    11 S    1.383    18 H    0.966
    11  16 S    1.690 --    10 C    1.383     4 C    0.129
    12   1 H    0.996 --     1 C    0.972
    13   1 H    0.999 --     1 C    0.973
    14   1 H    0.999 --     1 C    0.972
    15   1 H    0.983 --     7 N    0.955
    16   1 H    0.999 --     8 C    0.968
    17   1 H    1.000 --     9 C    0.974
    18   1 H    0.999 --    10 C    0.966
 ---------------------------------------------------------------------------

Topologies differ in total number of bonds
Writing topology from bond orders to xtbtopo.mol

molecular dipole:
                 x           y           z       tot (Debye)
 q only:        0.833       4.270      -0.574
   full:        1.116       5.138      -0.743      13.497
molecular quadrupole (traceless):
                xx          xy          yy          xz          yz          zz
 q only:       11.467      -8.250     -27.346       1.402       6.865      15.878
  q+dip:       19.526     -10.484     -33.102       1.247       7.292      13.576
   full:       17.152      -8.685     -33.204       1.144       7.695      16.051

           -------------------------------------------------
          |                Geometry Summary                 |
           -------------------------------------------------

      molecular mass/u    :      163.2196663
   center of mass at/Å    :        0.1847755      -0.7281459       0.0031315
  moments of inertia/u·Å² :        0.4084318E+03   0.7782613E+03   0.1183524E+04
rotational constants/cm⁻¹ :        0.4127404E-01   0.2166063E-01   0.1424359E-01

 * 16 selected distances

     #   Z          #   Z                                           value/Å
     2   6 C        3   6 C                                       1.2047004
     4   6 C        5   6 C                                       1.4349716
     5   6 C        6   7 N                                       1.3353009
     6   7 N        7   7 N                                       1.3483167
     7   7 N        8   6 C                                       1.3545944
     5   6 C        9   6 C                                       1.4269349
     8   6 C        9   6 C                                       1.3651237
     4   6 C       10   6 C                                       1.3761631
    10   6 C       11  16 S                                       1.6783063 (max)
     1   6 C       12   1 H                                       1.0936167
     1   6 C       13   1 H                                       1.0938156
     1   6 C       14   1 H                                       1.0925633
     7   7 N       15   1 H                                       1.0059727 (min)
     8   6 C       16   1 H                                       1.0748585
     9   6 C       17   1 H                                       1.0715773
    10   6 C       18   1 H                                       1.0879042

 * 6 distinct bonds (by element types)

   Z      Z             #   av. dist./Å        max./Å        min./Å
   1 H    6 C           6     1.0857226     1.0938156     1.0715773
   6 C    6 C           5     1.3615787     1.4349716     1.2047004
   1 H    7 N           1     1.0059727     1.0059727     1.0059727
   6 C    7 N           2     1.3449477     1.3545944     1.3353009
   7 N    7 N           1     1.3483167     1.3483167     1.3483167
   6 C   16 S           1     1.6783063     1.6783063     1.6783063


optimized geometry written to: xtbopt.xyz


           -------------------------------------------------
          | TOTAL ENERGY              -29.925155562925 Eh   |
          | GRADIENT NORM               0.000259671875 Eh/α |
          | HOMO-LUMO GAP               1.741696845177 eV   |
           -------------------------------------------------

------------------------------------------------------------------------
 * finished run on 2022/11/02 at 18:13:36.642     
------------------------------------------------------------------------
 total:
 * wall-time:     0 d,  0 h,  0 min,  0.995 sec
 *  cpu-time:     0 d,  0 h,  0 min,  0.925 sec
 * ratio c/w:     0.930 speedup
 SCF:
 * wall-time:     0 d,  0 h,  0 min,  0.053 sec
 *  cpu-time:     0 d,  0 h,  0 min,  0.046 sec
 * ratio c/w:     0.868 speedup
 ANC optimizer:
 * wall-time:     0 d,  0 h,  0 min,  0.879 sec
 *  cpu-time:     0 d,  0 h,  0 min,  0.848 sec
 * ratio c/w:     0.964 speedup

