18
 energy: -29.925155562925 gnorm: 0.000259671875 xtb: 6.4.1 (afa7bdf)
C        -3.60042862709707    0.52098291093680   -0.04986384375571
C        -2.26119643980755   -0.03916127215795   -0.01091308200568
C        -1.15369311372119   -0.51201190303518    0.02302480511093
C         0.14190960663176   -1.06754820528453    0.06543830004040
C         1.24006209997617   -0.16807748943739   -0.14469736031154
N         2.52580244812871   -0.52833922255319   -0.13412133868351
N         3.22528654238031    0.60019708782800   -0.36882459218905
C         2.41962123045773    1.67718810675345   -0.52982043759631
C         1.13591040708545    1.23294815249024   -0.39454299722479
C         0.34483301640450   -2.40887157163526    0.29673614391501
S        -0.82205403053659   -3.58599185813470    0.56031623204544
H        -4.10880367350218    0.24016587125603   -0.97652132051317
H        -3.56026046520403    1.61259818089909    0.00666295859707
H        -4.19046822806700    0.15075722885426    0.79184915497134
H         4.22995497518732    0.56349230235555   -0.40453374779786
H         2.82433206136712    2.65376818967136   -0.72429742549380
H         0.22870856878772    1.79959676778807   -0.45913491267043
H         1.38048562152930   -2.74169227659454    0.31050546356159
