      -----------------------------------------------------------      
     |                   =====================                   |     
     |                           x T B                           |     
     |                   =====================                   |     
     |                         S. Grimme                         |     
     |          Mulliken Center for Theoretical Chemistry        |     
     |                    University of Bonn                     |     
      -----------------------------------------------------------      

   * xtb version 6.4.1 (afa7bdf) compiled by 'ehlert@majestix' on 2021-06-10

   xtb is free software: you can redistribute it and/or modify it under
   the terms of the GNU Lesser General Public License as published by
   the Free Software Foundation, either version 3 of the License, or
   (at your option) any later version.
   
   xtb is distributed in the hope that it will be useful,
   but WITHOUT ANY WARRANTY; without even the implied warranty of
   MERCHANTABILITY or FITNESS FOR A PARTICULAR PURPOSE.  See the
   GNU Lesser General Public License for more details.
   
   Cite this work as:
   * C. Bannwarth, E. Caldeweyher, S. Ehlert, A. Hansen, P. Pracht,
     J. Seibert, S. Spicher, S. Grimme, WIREs Comput. Mol. Sci., 2020, 11,
     e01493. DOI: 10.1002/wcms.1493
   
   for GFN2-xTB:
   * C. Bannwarth, S. Ehlert and S. Grimme., J. Chem. Theory Comput., 2019,
     15, 1652-1671. DOI: 10.1021/acs.jctc.8b01176
   for GFN1-xTB:
   * S. Grimme, C. Bannwarth, P. Shushkov, J. Chem. Theory Comput., 2017,
     13, 1989-2009. DOI: 10.1021/acs.jctc.7b00118
   for GFN0-xTB:
   * P. Pracht, E. Caldeweyher, S. Ehlert, S. Grimme, ChemRxiv, 2019, preprint.
     DOI: 10.26434/chemrxiv.8326202.v1
   for GFN-FF:
   * S. Spicher and S. Grimme, Angew. Chem. Int. Ed., 2020, 59, 15665-15673.
     DOI: 10.1002/anie.202004239
   
   for DFT-D4:
   * E. Caldeweyher, C. Bannwarth and S. Grimme, J. Chem. Phys., 2017,
     147, 034112. DOI: 10.1063/1.4993215
   * E. Caldeweyher, S. Ehlert, A. Hansen, H. Neugebauer, S. Spicher,
     C. Bannwarth and S. Grimme, J. Chem. Phys., 2019, 150, 154122.
     DOI: 10.1063/1.5090222
   * E. Caldeweyher, J.-M. Mewes, S. Ehlert and S. Grimme, Phys. Chem. Chem. Phys.
     2020, 22, 8499-8512. DOI: 10.1039/D0CP00502A
   
   for sTDA-xTB:
   * S. Grimme and C. Bannwarth, J. Chem. Phys., 2016, 145, 054103.
     DOI: 10.1063/1.4959605
   
   in the mass-spec context:
   * V. Asgeirsson, C. Bauer and S. Grimme, Chem. Sci., 2017, 8, 4879.
     DOI: 10.1039/c7sc00601b
   * J. Koopman and S. Grimme, ACS Omega 2019, 4, 12, 15120-15133.
     DOI: 10.1021/acsomega.9b02011
   
   for metadynamics refer to:
   * S. Grimme, J. Chem. Theory Comput., 2019, 155, 2847-2862
     DOI: 10.1021/acs.jctc.9b00143
   
   for SPH calculations refer to:
   * S. Spicher and S. Grimme, J. Chem. Theory Comput., 2021, 17, 1701-1714
     DOI: 10.1021/acs.jctc.0c01306
   
   with help from (in alphabetical order)
   P. Atkinson, C. Bannwarth, F. Bohle, G. Brandenburg, E. Caldeweyher
   M. Checinski, S. Dohm, S. Ehlert, S. Ehrlich, I. Gerasimov, J. Koopman
   C. Lavigne, S. Lehtola, F. März, M. Müller, F. Musil, H. Neugebauer
   J. Pisarek, C. Plett, P. Pracht, J. Seibert, P. Shushkov, S. Spicher
   M. Stahn, M. Steiner, T. Strunk, J. Stückrath, T. Rose, and J. Unsleber
   
 * started run on 2022/11/02 at 18:13:37.266     

           -------------------------------------------------
          |                Calculation Setup                |
           -------------------------------------------------

          program call               : /lustre/hpc/kemi/borup/pKalculator/dep/xtb-6.4.1/bin/xtb --gfn 2 /lustre/hpc/kemi/borup/pKalculator/calc/test#-1=1/conf06/test#-1=1_conf06_gfn2.xyz --opt --lmo --chrg -1 --uhf 0
          hostname                   : fend01.cluster
          coordinate file            : /lustre/hpc/kemi/borup/pKalculator/calc/test#-1=1/conf06/test#-1=1_conf06_gfn2.xyz
          omp threads                :                     1
          number of atoms            :                    18
          number of electrons        :                    56
          charge                     :                    -1
          spin                       :                   0.0
          first test random number   :      0.74007660006476

   ID    Z sym.   atoms
    1    6 C      1-5, 8-10
    2    7 N      6, 7
    3   16 S      11
    4    1 H      12-18

           -------------------------------------------------
          |                 G F N 2 - x T B                 |
           -------------------------------------------------

        Reference                      10.1021/acs.jctc.8b01176
      * Hamiltonian:
        H0-scaling (s, p, d)           1.850000    2.230000    2.230000
        zeta-weighting                 0.500000
      * Dispersion:
        s8                             2.700000
        a1                             0.520000
        a2                             5.000000
        s9                             5.000000
      * Repulsion:
        kExp                           1.500000    1.000000
        rExp                           1.000000
      * Coulomb:
        alpha                          2.000000
        third order                    shell-resolved
        anisotropic                    true
        a3                             3.000000
        a5                             4.000000
        cn-shift                       1.200000
        cn-exp                         4.000000
        max-rad                        5.000000


          ...................................................
          :                      SETUP                      :
          :.................................................:
          :  # basis functions                  57          :
          :  # atomic orbitals                  56          :
          :  # shells                           30          :
          :  # electrons                        56          :
          :  max. iterations                   250          :
          :  Hamiltonian                  GFN2-xTB          :
          :  restarted?                      false          :
          :  GBSA solvation                  false          :
          :  PC potential                    false          :
          :  electronic temp.          300.0000000     K    :
          :  accuracy                    1.0000000          :
          :  -> integral cutoff          0.2500000E+02      :
          :  -> integral neglect         0.1000000E-07      :
          :  -> SCF convergence          0.1000000E-05 Eh   :
          :  -> wf. convergence          0.1000000E-03 e    :
          :  Broyden damping             0.4000000          :
          ...................................................

 iter      E             dE          RMSdq      gap      omega  full diag
   1    -30.0755904 -0.300756E+02  0.426E+00    2.86       0.0  T
   2    -29.0405163  0.103507E+01  0.676E+00    0.85       1.0  T
   3    -30.2275570 -0.118704E+01  0.262E+00    2.29       1.0  T
   4    -30.2575095 -0.299525E-01  0.159E+00    1.25       1.0  T
   5    -30.2718908 -0.143813E-01  0.104E+00    0.72       1.0  T
   6    -30.2788035 -0.691279E-02  0.630E-01    0.33       1.0  T
   7    -30.2844813 -0.567774E-02  0.176E-01    0.13       1.0  T
   8    -30.2821589  0.232240E-02  0.333E-01    0.22       1.0  T
   9    -30.2825420 -0.383090E-03  0.297E-01    0.11       1.0  T
  10    -30.2844530 -0.191102E-02  0.147E-01    0.17       1.0  T
  11    -30.2849577 -0.504685E-03  0.487E-02    0.14       1.0  T
  12    -30.2850061 -0.483813E-04  0.227E-02    0.14       1.0  T
  13    -30.2850074 -0.135703E-05  0.213E-02    0.14       1.1  T
  14    -30.2850194 -0.119728E-04  0.534E-03    0.14       4.4  T
  15    -30.2850196 -0.161556E-06  0.465E-03    0.14       5.1  T
  16    -30.2850201 -0.546590E-06  0.135E-03    0.14      17.4  T
  17    -30.2850202 -0.504715E-07  0.796E-05    0.14     296.2  T
  18    -30.2850202  0.363904E-10  0.761E-05    0.14     309.6  T

   *** convergence criteria satisfied after 18 iterations ***

         #    Occupation            Energy/Eh            Energy/eV
      -------------------------------------------------------------
         1        2.0000           -0.5762572             -15.6808
       ...           ...                  ...                  ...
        22        2.0000           -0.2452425              -6.6734
        23        2.0000           -0.2368871              -6.4460
        24        2.0000           -0.2311698              -6.2905
        25        2.0000           -0.1932873              -5.2596
        26        2.0000           -0.1833944              -4.9904
        27        2.0000           -0.1676146              -4.5610
        28        1.8783           -0.0906695              -2.4672 (HOMO)
        29        0.1217           -0.0854703              -2.3258 (LUMO)
        30                         -0.0589855              -1.6051
        31                         -0.0352556              -0.9594
        32                          0.0210559               0.5730
        33                          0.0243764               0.6633
       ...                                ...                  ...
        56                          0.8920412              24.2737
      -------------------------------------------------------------
                  HL-Gap            0.0051992 Eh            0.1415 eV
             Fermi-level           -0.0880699 Eh           -2.3965 eV
 
 localization/xTB-IFF output generation
 averaging CT terms over            1  occ. levels
 averaging CT terms over            1  virt. levels
 dipole moment from electron density (au)
     X       Y       Z   
  -2.1480  -1.0036  -1.0434  total (Debye):    6.584
cpu  time for init local    0.00 s
wall time for init local    0.01 s
 doing rotations ...
 initialization of trafo matrix to unity

 converged in     42 iterations, threshold :   0.99728114D-06
 doing transformations ...
 lmo centers(Z=2) and atoms on file <lmocent.coord>
 LMO Fii/eV  ncent    charge center   contributions...
    1 sigma -11.22   1.97  -5.51312   0.18338  -0.14451    1C :  0.52    2C :  0.48
    2 sigma -10.97   1.94  -4.07281   1.90785   1.36487   11S :  0.59    2C :  0.41
    3 sigma -10.92   1.99  -6.81186  -0.12548  -1.94217    1C :  0.50   12H :  0.50
    4 sigma -10.92   1.99  -6.90367  -1.56920  -0.26929    1C :  0.51   14H :  0.50
    5 sigma -10.91   1.99   6.56846  -2.92503  -1.95090    7N :  0.53   16H :  0.47
    6 sigma -10.88   1.97  -7.72398   0.47069  -0.01533    1C :  0.51   13H :  0.50
    7 sigma -10.75   1.90  -2.14829   3.00003   2.38756   11S :  0.61   10C :  0.39
    8 sigma -10.23   1.86   6.47231  -1.37103  -0.63975    7N :  0.62    8C :  0.39
    9 sigma -10.08   2.00  -0.87195   0.10407   0.10764    3C :  0.52    4C :  0.48
   10 LP    -10.03   1.15  -4.44249   2.08822   4.66770   11S :  0.93
   11 LP    -10.03   1.14  -4.18050   5.19313   0.85855   11S :  0.93
   12 sigma  -9.77   2.01   0.38827   3.48152   2.94390   10C :  0.50   18H :  0.49
   13 sigma  -9.75   2.02  -1.89584  -1.47911  -1.26080   15H :  0.50    3C :  0.50
   14 pi     -9.74   1.87   5.04956  -2.26852  -0.94943    7N :  0.66    6N :  0.31
   15 pi     -9.69   1.86   5.10295  -1.72286  -1.58774    7N :  0.67    6N :  0.30
   16 pi     -9.31   2.10  -3.03090   0.45698  -0.42876    2C :  0.50    3C :  0.48
   17 pi     -9.30   2.11  -3.08613  -0.20668   0.38109    2C :  0.50    3C :  0.48
   18 sigma  -9.20   2.02   1.42422   0.36708   0.47118    4C :  0.54    5C :  0.45
   19 sigma  -8.92   1.99   8.35783  -0.09516   0.57073   17H :  0.54    8C :  0.46
   20 pi     -8.76   2.17  -0.23927   1.37742   1.85573   10C :  0.50    4C :  0.45
   21 pi     -8.76   2.18  -0.18734   2.02760   1.05743   10C :  0.50    4C :  0.45
   22 delpi  -7.88   2.24   3.09186  -1.27195  -0.20885    6N :  0.50    5C :  0.45
   23 delpi  -7.86   2.25   3.13853  -0.68698  -0.88748    6N :  0.49    5C :  0.45
   24 sigma  -7.83   2.00   3.82056   0.46832   0.72937    5C :  0.56    9C :  0.44
   25 pi     -6.87   2.20   5.99168   0.50362   0.26255    8C :  0.55    9C :  0.38
   26 delpi  -6.87   2.20   5.93820  -0.13317   1.01698    8C :  0.55    9C :  0.38
   27 LP     -6.42   1.02   2.43422  -3.13124  -2.41915    6N :  0.99
   28 LP     -3.63   1.06   5.11415   2.46951   2.51246    9C :  0.97
 starting deloc pi regularization ...
 thr    2.20000000000000      # pi deloc LMO           5
 files:
 coordprot.0/xtbscreen.xyz/xtblmoinfo/lmocent.coord
 with protonation site input, xtbdock and
 LMO center info written
 

 SCC (total)                   0 d,  0 h,  0 min,  0.055 sec
 SCC setup                      ...        0 min,  0.000 sec (  0.630%)
 Dispersion                     ...        0 min,  0.000 sec (  0.433%)
 classical contributions        ...        0 min,  0.000 sec (  0.106%)
 integral evaluation            ...        0 min,  0.005 sec (  8.567%)
 iterations                     ...        0 min,  0.021 sec ( 37.938%)
 molecular gradient             ...        0 min,  0.010 sec ( 17.606%)
 printout                       ...        0 min,  0.019 sec ( 34.620%)

         :::::::::::::::::::::::::::::::::::::::::::::::::::::
         ::                     SUMMARY                     ::
         :::::::::::::::::::::::::::::::::::::::::::::::::::::
         :: total energy             -29.863461897802 Eh    ::
         :: gradient norm              0.107619984397 Eh/a0 ::
         :: HOMO-LUMO gap              0.141476213789 eV    ::
         ::.................................................::
         :: SCC energy               -30.285020155436 Eh    ::
         :: -> isotropic ES            0.121894161939 Eh    ::
         :: -> anisotropic ES          0.007192922549 Eh    ::
         :: -> anisotropic XC          0.018010988250 Eh    ::
         :: -> dispersion             -0.018303459483 Eh    ::
         :: repulsion energy           0.421604766335 Eh    ::
         :: add. restraining           0.000000000000 Eh    ::
         :: total charge              -1.000000000000 e     ::
         :::::::::::::::::::::::::::::::::::::::::::::::::::::

      ----------------------------------------------------------- 
     |                   =====================                   |
     |                        A N C O P T                        |
     |                   =====================                   |
     |               Approximate Normal Coordinate               |
     |                Rational Function Optimizer                |
      ----------------------------------------------------------- 

          ...................................................
          :                      SETUP                      :
          :.................................................:
          :   optimization level            normal          :
          :   max. optcycles                   200          :
          :   ANC micro-cycles                  20          :
          :   degrees of freedom                48          :
          :.................................................:
          :   RF solver                   davidson          :
          :   write xtbopt.log                true          :
          :   linear?                        false          :
          :   energy convergence         0.5000000E-05 Eh   :
          :   grad. convergence          0.1000000E-02 Eh/α :
          :   maximium RF displ.         1.0000000          :
          :   Hlow (freq-cutoff)         0.1000000E-01      :
          :   Hmax (freq-cutoff)         5.0000000          :
          :   S6 in model hess.         20.0000000          :
          ...................................................

generating ANC from model Hessian ...
Using Lindh-Hessian (1995)
 Shifting diagonal of input Hessian by   8.077272754041831E-003
 Lowest  eigenvalues of input Hessian
    0.000000    0.000000    0.000000    0.000000    0.000000    0.000000
    0.010000    0.012009    0.012633    0.015682    0.019058    0.023828
    0.030559    0.042279    0.043914    0.050113    0.054795    0.060907
 Highest eigenvalues
    1.671540    1.733770    1.846833    1.901489    1.970572    2.033560
 

........................................................................
.............................. CYCLE    1 ..............................
........................................................................
   1    -30.2850202 -0.302850E+02  0.922E-05    0.14       0.0  T
   2    -30.2850201  0.325993E-07  0.106E-03    0.14      22.2  T
   3    -30.2850202 -0.328246E-07  0.211E-05    0.14    1116.2  T
   4    -30.2850202 -0.103846E-10  0.723E-06    0.14    3261.7  T
     SCC iter.                  ...        0 min,  0.009 sec
     gradient                   ...        0 min,  0.016 sec
 * total energy  :   -29.8634619 Eh     change       -0.1407692E-09 Eh
   gradient norm :     0.1076186 Eh/α   predicted     0.0000000E+00 (-100.00%)
   displ. norm   :     0.2417654 α      lambda       -0.1599601E-01
   maximum displ.:     0.0902130 α      in ANC's #7, #27, #9, ...

........................................................................
.............................. CYCLE    2 ..............................
........................................................................
   1    -30.2853012 -0.302853E+02  0.496E-01    0.47       0.0  T
   2    -29.5259375  0.759364E+00  0.497E+00    0.09       1.0  T
   3    -30.2857250 -0.759788E+00  0.356E-01    0.41       1.0  T
   4    -30.2860816 -0.356524E-03  0.248E-01    0.36       1.0  T
   5    -30.2862435 -0.161943E-03  0.235E-01    0.34       1.0  T
   6    -30.2863243 -0.807488E-04  0.221E-01    0.33       1.0  T
   7    -30.2864886 -0.164356E-03  0.203E-01    0.31       1.0  T
   8    -30.2866538 -0.165230E-03  0.184E-01    0.29       1.0  T
   9    -30.2867398 -0.859251E-04  0.173E-01    0.28       1.0  T
  10    -30.2869455 -0.205765E-03  0.146E-01    0.26       1.0  T
  11    -30.2873683 -0.422804E-03  0.653E-02    0.21       1.0  T
  12    -30.2874788 -0.110426E-03  0.113E-03    0.19      20.8  T
  13    -30.2874774  0.133873E-05  0.715E-03    0.19       3.3  T
  14    -30.2874788 -0.132834E-05  0.782E-04    0.19      30.2  T
  15    -30.2874787  0.342253E-07  0.137E-03    0.19      17.2  T
  16    -30.2874788 -0.439614E-07  0.495E-04    0.19      47.7  T
  17    -30.2874788 -0.520035E-08  0.226E-04    0.19     104.2  T
     SCC iter.                  ...        0 min,  0.025 sec
     gradient                   ...        0 min,  0.009 sec
 * total energy  :   -29.8747799 Eh     change       -0.1131804E-01 Eh
   gradient norm :     0.0464229 Eh/α   predicted    -0.8465488E-02 ( -25.20%)
   displ. norm   :     0.2353750 α      lambda       -0.5809715E-02
   maximum displ.:     0.1224822 α      in ANC's #7, #13, #9, ...

........................................................................
.............................. CYCLE    3 ..............................
........................................................................
   1    -30.2883295 -0.302883E+02  0.330E-01    0.45       0.0  T
   2    -30.2884872 -0.157701E-03  0.217E-01    0.27       1.0  T
   3    -30.2883998  0.874742E-04  0.114E-01    0.41       1.0  T
   4    -30.2886043 -0.204506E-03  0.312E-02    0.32       1.0  T
   5    -30.2886082 -0.397787E-05  0.181E-02    0.32       1.3  T
   6    -30.2886087 -0.428824E-06  0.110E-02    0.32       2.1  T
   7    -30.2886096 -0.969509E-06  0.440E-03    0.32       5.4  T
   8    -30.2886098 -0.138647E-06  0.160E-03    0.32      14.7  T
   9    -30.2886098 -0.104202E-07  0.900E-04    0.32      26.2  T
  10    -30.2886098 -0.860691E-08  0.195E-04    0.32     120.9  T
     SCC iter.                  ...        0 min,  0.011 sec
     gradient                   ...        0 min,  0.010 sec
 * total energy  :   -29.8780225 Eh     change       -0.3242606E-02 Eh
   gradient norm :     0.0108140 Eh/α   predicted    -0.3065794E-02 (  -5.45%)
   displ. norm   :     0.0826972 α      lambda       -0.2972634E-03
   maximum displ.:     0.0709086 α      in ANC's #7, #3, #13, ...

........................................................................
.............................. CYCLE    4 ..............................
........................................................................
   1    -30.2888824 -0.302889E+02  0.549E-02    0.35       0.0  T
   2    -30.2888846 -0.217424E-05  0.350E-02    0.35       1.0  T
   3    -30.2888834  0.121737E-05  0.223E-02    0.35       1.1  T
   4    -30.2888890 -0.565845E-05  0.533E-03    0.35       4.4  T
   5    -30.2888893 -0.240746E-06  0.311E-03    0.35       7.6  T
   6    -30.2888893 -0.673348E-07  0.116E-03    0.35      20.4  T
   7    -30.2888893 -0.995534E-09  0.617E-04    0.35      38.2  T
   8    -30.2888893 -0.264958E-08  0.297E-04    0.35      79.2  T
     SCC iter.                  ...        0 min,  0.009 sec
     gradient                   ...        0 min,  0.010 sec
 * total energy  :   -29.8782298 Eh     change       -0.2072982E-03 Eh
   gradient norm :     0.0058642 Eh/α   predicted    -0.1496471E-03 ( -27.81%)
   displ. norm   :     0.0853567 α      lambda       -0.1472233E-03
   maximum displ.:     0.0714662 α      in ANC's #7, #3, #2, ...

........................................................................
.............................. CYCLE    5 ..............................
........................................................................
   1    -30.2894921 -0.302895E+02  0.450E-02    0.35       0.0  T
   2    -30.2894933 -0.117096E-05  0.265E-02    0.34       1.0  T
   3    -30.2894919  0.135233E-05  0.186E-02    0.35       1.3  T
   4    -30.2894957 -0.376527E-05  0.431E-03    0.34       5.5  T
   5    -30.2894959 -0.180993E-06  0.183E-03    0.34      12.9  T
   6    -30.2894959 -0.206474E-07  0.567E-04    0.34      41.6  T
   7    -30.2894959 -0.269961E-08  0.246E-04    0.34      95.8  T
     SCC iter.                  ...        0 min,  0.008 sec
     gradient                   ...        0 min,  0.010 sec
 * total energy  :   -29.8783190 Eh     change       -0.8916015E-04 Eh
   gradient norm :     0.0029913 Eh/α   predicted    -0.7414996E-04 ( -16.84%)
   displ. norm   :     0.0457110 α      lambda       -0.2785544E-04
   maximum displ.:     0.0370016 α      in ANC's #3, #7, #2, ...

........................................................................
.............................. CYCLE    6 ..............................
........................................................................
   1    -30.2898685 -0.302899E+02  0.208E-02    0.34       0.0  T
   2    -30.2898687 -0.208644E-06  0.116E-02    0.34       2.0  T
   3    -30.2898682  0.546238E-06  0.892E-03    0.34       2.6  T
   4    -30.2898691 -0.959065E-06  0.180E-03    0.34      13.1  T
   5    -30.2898692 -0.228374E-07  0.820E-04    0.34      28.8  T
   6    -30.2898692 -0.554755E-08  0.404E-04    0.34      58.3  T
     SCC iter.                  ...        0 min,  0.007 sec
     gradient                   ...        0 min,  0.010 sec
 * total energy  :   -29.8783393 Eh     change       -0.2026596E-04 Eh
   gradient norm :     0.0020516 Eh/α   predicted    -0.1395872E-04 ( -31.12%)
   displ. norm   :     0.0500614 α      lambda       -0.1884068E-04
   maximum displ.:     0.0464228 α      in ANC's #3, #7, #2, ...

........................................................................
.............................. CYCLE    7 ..............................
........................................................................
   1    -30.2901155 -0.302901E+02  0.207E-02    0.34       0.0  T
   2    -30.2901159 -0.378152E-06  0.130E-02    0.34       1.8  T
   3    -30.2901161 -0.261877E-06  0.867E-03    0.34       2.7  T
   4    -30.2901168 -0.675285E-06  0.192E-03    0.34      12.3  T
   5    -30.2901168 -0.295432E-07  0.936E-04    0.34      25.2  T
   6    -30.2901168 -0.913976E-08  0.417E-04    0.34      56.6  T
     SCC iter.                  ...        0 min,  0.007 sec
     gradient                   ...        0 min,  0.009 sec
 * total energy  :   -29.8783523 Eh     change       -0.1304075E-04 Eh
   gradient norm :     0.0010379 Eh/α   predicted    -0.9444275E-05 ( -27.58%)
   displ. norm   :     0.0384305 α      lambda       -0.6043475E-05
   maximum displ.:     0.0370424 α      in ANC's #3, #2, #13, ...

........................................................................
.............................. CYCLE    8 ..............................
........................................................................
   1    -30.2901487 -0.302901E+02  0.151E-02    0.34       0.0  T
   2    -30.2901489 -0.233872E-06  0.103E-02    0.34       2.3  T
   3    -30.2901493 -0.434184E-06  0.615E-03    0.34       3.8  T
   4    -30.2901496 -0.244349E-06  0.146E-03    0.34      16.1  T
   5    -30.2901496 -0.219545E-07  0.687E-04    0.34      34.3  T
   6    -30.2901496 -0.504147E-08  0.253E-04    0.34      93.1  T
     SCC iter.                  ...        0 min,  0.007 sec
     gradient                   ...        0 min,  0.010 sec
 * total energy  :   -29.8783585 Eh     change       -0.6205238E-05 Eh
   gradient norm :     0.0008048 Eh/α   predicted    -0.3023689E-05 ( -51.27%)
   displ. norm   :     0.0204749 α      lambda       -0.2330971E-05
   maximum displ.:     0.0186930 α      in ANC's #3, #2, #7, ...

........................................................................
.............................. CYCLE    9 ..............................
........................................................................
   1    -30.2900881 -0.302901E+02  0.840E-03    0.34       0.0  T
   2    -30.2900882 -0.204463E-07  0.547E-03    0.34       4.3  T
   3    -30.2900881  0.695888E-07  0.390E-03    0.34       6.0  T
   4    -30.2900883 -0.174166E-06  0.595E-04    0.34      39.6  T
   5    -30.2900883 -0.357261E-08  0.333E-04    0.34      70.8  T
     SCC iter.                  ...        0 min,  0.006 sec
     gradient                   ...        0 min,  0.010 sec
 * total energy  :   -29.8783612 Eh     change       -0.2725540E-05 Eh
   gradient norm :     0.0005250 Eh/α   predicted    -0.1165606E-05 ( -57.23%)
   displ. norm   :     0.0206463 α      lambda       -0.1475068E-05
   maximum displ.:     0.0177247 α      in ANC's #3, #2, #5, ...

   *** GEOMETRY OPTIMIZATION CONVERGED AFTER 9 ITERATIONS ***

------------------------------------------------------------------------
 total energy gain   :        -0.0148993 Eh       -9.3495 kcal/mol
 total RMSD          :         0.1524242 a0        0.0807 Å
 total power (kW/mol):        -4.3464688 (step) -161.3907 (real)
------------------------------------------------------------------------

 ANCopt (total)                0 d,  0 h,  0 min,  0.242 sec
 optimizer setup                ...        0 min,  0.001 sec (  0.239%)
 model hessian                  ...        0 min,  0.004 sec (  1.732%)
 ANC generation                 ...        0 min,  0.001 sec (  0.481%)
 coordinate transformation      ...        0 min,  0.000 sec (  0.059%)
 single point calculation       ...        0 min,  0.231 sec ( 95.344%)
 optimization log               ...        0 min,  0.002 sec (  0.957%)
 hessian update                 ...        0 min,  0.000 sec (  0.053%)
 rational function              ...        0 min,  0.002 sec (  0.823%)

================
 final structure:
================
18
 xtb: 6.4.1 (afa7bdf)
C        -3.55152435420518   -0.14179269605133   -0.31579673256057
C        -2.18228632994947    0.27200346835595    0.11593923776239
C        -0.98658836700029   -0.25144185520088   -0.23654349536820
C         0.14170788724882    0.39129003549165    0.36548268915242
C         1.50921689910756    0.01252551434085    0.14455532838840
N         1.77523657971076   -1.01496182307605   -0.69448788065792
N         3.10915105095546   -1.09743132537997   -0.66963126594713
C         3.65420132446138   -0.14075583662413    0.16785102300068
C         2.66744655540704    0.63746966010749    0.74834621168217
C        -0.25348411373893    1.41382223375310    1.17977691679364
S        -1.97600280145756    1.60467365249516    1.22439271771525
H        -3.66783998738707   -0.02723118208007   -1.39547862458635
H        -4.30365136071357    0.46857980234528    0.17987279555108
H        -3.73411964346171   -1.18921824211924   -0.06817592583805
H        -0.87067969958599   -1.08227766638120   -0.91138453676973
H         3.57013795142692   -1.80633524295992   -1.22843025668447
H         4.73590485163598   -0.11812441085266    0.26318015008377
H         0.36317355754582    2.06920591383589    1.75924664828253
 
 Bond Distances (Angstroems)
 ---------------------------
C1-C2=1.4941         C1-H12=1.0920        C1-H13=1.0881        C1-H14=1.0917        C2-C1=1.4941         C2-C3=1.3520         
C2-S11=1.7456        C3-C2=1.3520         C3-C4=1.4313         C3-H15=1.0766        C4-C3=1.4313         C4-C5=1.4361         
C4-C10=1.3656        C5-C4=1.4361         C5-N6=1.3530         C5-C9=1.4480         N6-C5=1.3530         N6-N7=1.3367         
N7-N6=1.3367         N7-C8=1.3834         N7-H16=1.0136        C8-N7=1.3834         C8-C9=1.3843         C8-H17=1.0861        
C9-C5=1.4480         C9-C8=1.3843         C10-C4=1.3656        C10-S11=1.7336       C10-H18=1.0703       S11-C2=1.7456        
S11-C10=1.7336       H12-C1=1.0920        H13-C1=1.0881        H14-C1=1.0917        H15-C3=1.0766        H16-N7=1.0136        
H17-C8=1.0861        H18-C10=1.0703       
 C  H  Rav=1.0841 sigma=0.0080  Rmin=1.0703  Rmax=1.0920     6
 C  C  Rav=1.4159 sigma=0.0469  Rmin=1.3520  Rmax=1.4941     7
 N  H  Rav=1.0136 sigma=0.0000  Rmin=1.0136  Rmax=1.0136     1
 N  C  Rav=1.3682 sigma=0.0152  Rmin=1.3530  Rmax=1.3834     2
 N  N  Rav=1.3367 sigma=0.0000  Rmin=1.3367  Rmax=1.3367     1
 S  C  Rav=1.7396 sigma=0.0060  Rmin=1.7336  Rmax=1.7456     2
 
 selected bond angles (degree)
 --------------------
H12-C1-C2=110.75               H13-C1-C2=110.27               H13-C1-H12=108.54              H14-C1-C2=110.70               
H14-C1-H12=107.89              H14-C1-H13=108.62              C3-C2-C1=128.90                S11-C2-C1=120.21               
S11-C2-C3=110.89               C4-C3-C2=114.43                H15-C3-C2=123.88               H15-C3-C4=121.69               
C5-C4-C3=124.58                C10-C4-C3=111.03               C10-C4-C5=124.39               N6-C5-C4=118.88                
C9-C5-C4=125.71                C9-C5-N6=115.41                N7-N6-C5=103.39                C8-N7-N6=111.21                
H16-N7-N6=119.13               H16-N7-C8=129.66               C9-C8-N7=111.21                H17-C8-N7=117.38               
H17-C8-C9=131.41               C8-C9-C5= 98.78                S11-C10-C4=112.66              H18-C10-C4=127.92              
H18-C10-S11=119.41             
 
 selected dihedral angles (degree)
 ---------------------------------
C3-C2-C1-H12=298.33           C3-C2-C1-H13=178.18           C3-C2-C1-H14= 57.95           S11-C2-C1-H12=118.22          
S11-C2-C1-H13=358.06          S11-C2-C1-H14=237.83          C4-C3-C2-C1=179.91            C4-C3-C2-S11=  0.00           
H15-C3-C2-C1=359.88           H15-C3-C2-S11=179.98          C5-C4-C3-C2=179.95            C5-C4-C3-H15=  0.00           
C10-C4-C3-C2=359.97           C10-C4-C3-H15=180.01          N6-C5-C4-C3=  0.48            N6-C5-C4-C10=180.45           
C9-C5-C4-C3=180.54            C9-C5-C4-C10=  0.51           N7-N6-C5-C4=180.03            N7-N6-C5-C9=359.98            
C8-N7-N6-C5=  0.00            H16-N7-N6-C5=179.97           C9-C8-N7-N6=  0.00            C9-C8-N7-H16=180.05           
H17-C8-N7-N6=179.98           H17-C8-N7-H16=  0.04          C8-C9-C5-C4=179.96            C8-C9-C5-N6=  0.00            
C5-C9-C8-N7=  0.00            C5-C9-C8-H17=180.01           S11-C10-C4-C3=  0.00          S11-C10-C4-C5=180.04          
H18-C10-C4-C3=179.97          H18-C10-C4-C5=  0.00          
           -------------------------------------------------
          |                Final Singlepoint                |
           -------------------------------------------------

          ...................................................
          :                      SETUP                      :
          :.................................................:
          :  # basis functions                  57          :
          :  # atomic orbitals                  56          :
          :  # shells                           30          :
          :  # electrons                        56          :
          :  max. iterations                   250          :
          :  Hamiltonian                  GFN2-xTB          :
          :  restarted?                      false          :
          :  GBSA solvation                  false          :
          :  PC potential                    false          :
          :  electronic temp.          300.0000000     K    :
          :  accuracy                    1.0000000          :
          :  -> integral cutoff          0.2500000E+02      :
          :  -> integral neglect         0.1000000E-07      :
          :  -> SCF convergence          0.1000000E-05 Eh   :
          :  -> wf. convergence          0.1000000E-03 e    :
          :  Broyden damping             0.4000000          :
          ...................................................

 iter      E             dE          RMSdq      gap      omega  full diag
   1    -30.2900883 -0.302901E+02  0.123E-04    0.34       0.0  T
   2    -30.2900883 -0.206022E-10  0.883E-05    0.34     267.0  T
   3    -30.2900883 -0.602185E-10  0.568E-05    0.34     415.1  T

   *** convergence criteria satisfied after 3 iterations ***

         #    Occupation            Energy/Eh            Energy/eV
      -------------------------------------------------------------
         1        2.0000           -0.5820861             -15.8394
       ...           ...                  ...                  ...
        22        2.0000           -0.2511083              -6.8330
        23        2.0000           -0.2371459              -6.4531
        24        2.0000           -0.2251809              -6.1275
        25        2.0000           -0.1924856              -5.2378
        26        2.0000           -0.1805971              -4.9143
        27        2.0000           -0.1564635              -4.2576
        28        1.9973           -0.1022481              -2.7823 (HOMO)
        29        0.0027           -0.0897137              -2.4412 (LUMO)
        30                         -0.0639264              -1.7395
        31                         -0.0376165              -1.0236
        32                          0.0238662               0.6494
        33                          0.0271023               0.7375
       ...                                ...                  ...
        56                          0.8668461              23.5881
      -------------------------------------------------------------
                  HL-Gap            0.0125344 Eh            0.3411 eV
             Fermi-level           -0.0959809 Eh           -2.6118 eV
 
 localization/xTB-IFF output generation
 averaging CT terms over            1  occ. levels
 averaging CT terms over            1  virt. levels
 dipole moment from electron density (au)
     X       Y       Z   
  -2.3320  -1.2839  -1.2863  total (Debye):    7.515
cpu  time for init local    0.01 s
wall time for init local    0.01 s
 doing rotations ...
 initialization of trafo matrix to unity
iteration     50  convergence  0.13490010D-02
iteration    100  convergence  0.12752666D-04

 converged in    119 iterations, threshold :   0.99701794D-06
 doing transformations ...
 lmo centers(Z=2) and atoms on file <lmocent.coord>
 LMO Fii/eV  ncent    charge center   contributions...
    1 sigma -11.34   1.97  -5.44350   0.12212  -0.19107    1C :  0.52    2C :  0.49
    2 sigma -11.14   1.93  -4.03124   1.81725   1.29576   11S :  0.59    2C :  0.41
    3 sigma -11.04   1.99  -6.82599  -0.11658  -1.93645    1C :  0.51   12H :  0.50
    4 sigma -11.04   1.99  -6.91031  -1.56827  -0.27861    1C :  0.51   14H :  0.50
    5 sigma -11.00   1.97  -7.64162   0.49577   0.02419    1C :  0.51   13H :  0.49
    6 sigma -10.95   1.99   6.44379  -2.91451  -1.92605    7N :  0.53   16H :  0.47
    7 sigma -10.86   1.89  -2.18658   2.94174   2.33991   11S :  0.61   10C :  0.39
    8 sigma -10.33   1.86   6.39905  -1.34957  -0.62053    7N :  0.63    8C :  0.38
    9 sigma -10.25   2.00  -0.78402   0.08432   0.08337    3C :  0.52    4C :  0.48
   10 LP    -10.17   1.15  -4.48937   1.96167   4.57238   11S :  0.93
   11 LP    -10.17   1.15  -4.24239   5.08086   0.77752   11S :  0.93
   12 sigma  -9.89   2.02  -1.73812  -1.50625  -1.28551    3C :  0.50   15H :  0.49
   13 sigma  -9.85   2.01   0.27510   3.50122   2.96092   10C :  0.51   18H :  0.49
   14 pi     -9.72   1.88   4.98208  -2.21730  -0.91154    7N :  0.66    6N :  0.31
   15 pi     -9.62   1.87   5.04779  -1.68398  -1.53767    7N :  0.67    6N :  0.30
   16 pi     -9.55   2.10  -2.99260  -0.27585   0.32818    2C :  0.50    3C :  0.48
   17 pi     -9.54   2.10  -2.93913   0.39399  -0.48723    2C :  0.50    3C :  0.48
   18 sigma  -9.35   2.02   1.47050   0.41893   0.50649    4C :  0.55    5C :  0.44
   19 pi     -8.83   2.18  -0.16865   2.02232   1.04917   10C :  0.51    4C :  0.44
   20 pi     -8.83   2.18  -0.22114   1.36956   1.84319   10C :  0.51    4C :  0.44
   21 sigma  -8.76   1.98   8.33695  -0.23284   0.44599   17H :  0.55    8C :  0.45
   22 delpi  -7.77   2.26   3.09353  -0.60202  -0.81022    6N :  0.49    5C :  0.45
   23 delpi  -7.77   2.26   3.04619  -1.17250  -0.13475    6N :  0.49    5C :  0.45
   24 sigma  -7.53   2.00   3.83986   0.61452   0.83765    5C :  0.56    9C :  0.43
   25 delpi  -6.57   2.23   5.94639   0.57703   0.31853    8C :  0.56    9C :  0.36
   26 delpi  -6.56   2.24   5.89420  -0.04465   1.06484    8C :  0.56    9C :  0.36
   27 LP     -6.39   1.02   2.27415  -3.02515  -2.31407    6N :  0.99
   28 LP     -3.87   1.05   5.17363   2.71512   2.68550    9C :  0.98
 starting deloc pi regularization ...
 thr    2.20000000000000      # pi deloc LMO           5
 files:
 coordprot.0/xtbscreen.xyz/xtblmoinfo/lmocent.coord
 with protonation site input, xtbdock and
 LMO center info written
 

 SCC (total)                   0 d,  0 h,  0 min,  0.039 sec
 SCC setup                      ...        0 min,  0.000 sec (  0.443%)
 Dispersion                     ...        0 min,  0.000 sec (  0.323%)
 classical contributions        ...        0 min,  0.000 sec (  0.089%)
 integral evaluation            ...        0 min,  0.004 sec ( 11.246%)
 iterations                     ...        0 min,  0.004 sec ( 10.193%)
 molecular gradient             ...        0 min,  0.010 sec ( 25.196%)
 printout                       ...        0 min,  0.021 sec ( 52.389%)

         :::::::::::::::::::::::::::::::::::::::::::::::::::::
         ::                     SUMMARY                     ::
         :::::::::::::::::::::::::::::::::::::::::::::::::::::
         :: total energy             -29.878361241409 Eh    ::
         :: gradient norm              0.000524033673 Eh/a0 ::
         :: HOMO-LUMO gap              0.341077827599 eV    ::
         ::.................................................::
         :: SCC energy               -30.290088272838 Eh    ::
         :: -> isotropic ES            0.123863190484 Eh    ::
         :: -> anisotropic ES          0.005975623982 Eh    ::
         :: -> anisotropic XC          0.018270579235 Eh    ::
         :: -> dispersion             -0.018416817211 Eh    ::
         :: repulsion energy           0.411772434294 Eh    ::
         :: add. restraining           0.000000000000 Eh    ::
         :: total charge              -1.000000000000 e     ::
         :::::::::::::::::::::::::::::::::::::::::::::::::::::

           -------------------------------------------------
          |                Property Printout                |
           -------------------------------------------------

    * Orbital Energies and Occupations

         #    Occupation            Energy/Eh            Energy/eV
      -------------------------------------------------------------
         1        2.0000           -0.5820861             -15.8394
       ...           ...                  ...                  ...
        16        2.0000           -0.3259806              -8.8704
        17        2.0000           -0.3204508              -8.7199
        18        2.0000           -0.3165013              -8.6124
        19        2.0000           -0.3084809              -8.3942
        20        2.0000           -0.2987750              -8.1301
        21        2.0000           -0.2759032              -7.5077
        22        2.0000           -0.2511083              -6.8330
        23        2.0000           -0.2371459              -6.4531
        24        2.0000           -0.2251809              -6.1275
        25        2.0000           -0.1924856              -5.2378
        26        2.0000           -0.1805971              -4.9143
        27        2.0000           -0.1564635              -4.2576
        28        1.9973           -0.1022481              -2.7823 (HOMO)
        29        0.0027           -0.0897137              -2.4412 (LUMO)
        30                         -0.0639264              -1.7395
        31                         -0.0376165              -1.0236
        32                          0.0238662               0.6494
        33                          0.0271023               0.7375
        34                          0.1009750               2.7477
        35                          0.1324878               3.6052
        36                          0.1642491               4.4694
        37                          0.1776882               4.8351
        38                          0.1980383               5.3889
        39                          0.2448051               6.6615
       ...                                ...                  ...
        56                          0.8668461              23.5881
      -------------------------------------------------------------
                  HL-Gap            0.0125344 Eh            0.3411 eV
             Fermi-level           -0.0959809 Eh           -2.6118 eV

     #   Z          covCN         q      C6AA      α(0)
     1   6 C        3.773    -0.092    22.279     6.726
     2   6 C        2.972     0.017    27.629     8.622
     3   6 C        3.120    -0.057    29.237     8.856
     4   6 C        3.131    -0.004    27.902     8.647
     5   6 C        3.254     0.041    26.020     8.252
     6   7 N        1.953    -0.333    29.461     8.049
     7   7 N        2.949    -0.057    22.342     7.020
     8   6 C        3.071    -0.020    28.427     8.742
     9   6 C        2.001    -0.367    42.747    10.559
    10   6 C        2.943    -0.031    28.770     8.797
    11  16 S        2.297    -0.208   149.908    20.607
    12   1 H        0.924     0.024     2.669     2.555
    13   1 H        0.925     0.032     2.562     2.503
    14   1 H        0.924     0.024     2.668     2.554
    15   1 H        0.926     0.020     2.737     2.587
    16   1 H        0.860     0.072     2.076     2.257
    17   1 H        0.925    -0.088     5.167     3.555
    18   1 H        0.927     0.025     2.659     2.550

 Mol. C6AA /au·bohr⁶  :       5954.306404
 Mol. C8AA /au·bohr⁸  :     164315.131655
 Mol. α(0) /au        :        123.437766


Wiberg/Mayer (AO) data.
largest (>0.10) Wiberg bond orders for each atom

 ---------------------------------------------------------------------------
     #   Z sym  total        # sym  WBO       # sym  WBO       # sym  WBO
 ---------------------------------------------------------------------------
     1   6 C    3.997 --     2 C    1.024    13 H    0.987    14 H    0.977
                            12 H    0.976
     2   6 C    3.937 --     3 C    1.655    11 S    1.114     1 C    1.024
                            10 C    0.108
     3   6 C    3.985 --     2 C    1.655     4 C    1.184    15 H    0.963
                            11 S    0.101
     4   6 C    3.975 --    10 C    1.537     3 C    1.184     5 C    1.109
     5   6 C    3.934 --     6 N    1.364     9 C    1.231     4 C    1.109
                             7 N    0.106
     6   7 N    2.911 --     5 C    1.364     7 N    1.199     8 C    0.202
     7   7 N    3.533 --     6 N    1.199     8 C    1.151    16 H    0.955
                             5 C    0.106
     8   6 C    3.885 --     9 C    1.525     7 N    1.151    17 H    0.961
                             6 N    0.202
     9   6 C    2.988 --     8 C    1.525     5 C    1.231
    10   6 C    3.906 --     4 C    1.537    11 S    1.118    18 H    0.970
                             2 C    0.108
    11  16 S    2.510 --    10 C    1.118     2 C    1.114     3 C    0.101
    12   1 H    0.999 --     1 C    0.976
    13   1 H    0.999 --     1 C    0.987
    14   1 H    0.999 --     1 C    0.977
    15   1 H    1.000 --     3 C    0.963
    16   1 H    0.994 --     7 N    0.955
    17   1 H    0.992 --     8 C    0.961
    18   1 H    0.999 --    10 C    0.970
 ---------------------------------------------------------------------------

Topologies differ in total number of bonds
Writing topology from bond orders to xtbtopo.mol

molecular dipole:
                 x           y           z       tot (Debye)
 q only:       -2.795      -0.531      -0.691
   full:       -2.326      -1.287      -1.289       7.511
molecular quadrupole (traceless):
                xx          xy          yy          xz          yz          zz
 q only:      -19.554       2.411       9.124      -0.550      -3.425      10.430
  q+dip:      -14.751      -1.453       6.941      -3.286      -4.091       7.811
   full:      -15.177      -1.049       6.827      -3.114      -5.731       8.351

           -------------------------------------------------
          |                Geometry Summary                 |
           -------------------------------------------------

      molecular mass/u    :      163.2196663
   center of mass at/Å    :        0.0803271       0.2849415       0.2744731
  moments of inertia/u·Å² :        0.1789859E+03   0.9314484E+03   0.1107288E+04
rotational constants/cm⁻¹ :        0.9418411E-01   0.1809830E-01   0.1522425E-01

 * 17 selected distances

     #   Z          #   Z                                           value/Å
     2   6 C        3   6 C                                       1.3520106
     3   6 C        4   6 C                                       1.4312904
     4   6 C        5   6 C                                       1.4360893
     5   6 C        6   7 N                                       1.3529561
     6   7 N        7   7 N                                       1.3366925
     7   7 N        8   6 C                                       1.3833598
     8   6 C        9   6 C                                       1.3843029
     4   6 C       10   6 C                                       1.3655856
     2   6 C       11  16 S                                       1.7456322 (max)
    10   6 C       11  16 S                                       1.7336336
     1   6 C       12   1 H                                       1.0919554
     1   6 C       13   1 H                                       1.0880891
     1   6 C       14   1 H                                       1.0916764
     3   6 C       15   1 H                                       1.0766306
     7   7 N       16   1 H                                       1.0135630 (min)
     8   6 C       17   1 H                                       1.0861318
    10   6 C       18   1 H                                       1.0703175

 * 6 distinct bonds (by element types)

   Z      Z             #   av. dist./Å        max./Å        min./Å
   1 H    6 C           6     1.0841335     1.0919554     1.0703175
   6 C    6 C           5     1.3938558     1.4360893     1.3520106
   1 H    7 N           1     1.0135630     1.0135630     1.0135630
   6 C    7 N           2     1.3681580     1.3833598     1.3529561
   7 N    7 N           1     1.3366925     1.3366925     1.3366925
   6 C   16 S           2     1.7396329     1.7456322     1.7336336


optimized geometry written to: xtbopt.xyz


           -------------------------------------------------
          | TOTAL ENERGY              -29.878361241409 Eh   |
          | GRADIENT NORM               0.000524033673 Eh/α |
          | HOMO-LUMO GAP               0.341077827599 eV   |
           -------------------------------------------------

------------------------------------------------------------------------
 * finished run on 2022/11/02 at 18:13:37.689     
------------------------------------------------------------------------
 total:
 * wall-time:     0 d,  0 h,  0 min,  0.423 sec
 *  cpu-time:     0 d,  0 h,  0 min,  0.359 sec
 * ratio c/w:     0.848 speedup
 SCF:
 * wall-time:     0 d,  0 h,  0 min,  0.055 sec
 *  cpu-time:     0 d,  0 h,  0 min,  0.049 sec
 * ratio c/w:     0.887 speedup
 ANC optimizer:
 * wall-time:     0 d,  0 h,  0 min,  0.285 sec
 *  cpu-time:     0 d,  0 h,  0 min,  0.277 sec
 * ratio c/w:     0.973 speedup

