18
 energy: -29.878361241409 gnorm: 0.000524033673 xtb: 6.4.1 (afa7bdf)
C        -3.55152435420518   -0.14179269605133   -0.31579673256057
C        -2.18228632994947    0.27200346835595    0.11593923776239
C        -0.98658836700029   -0.25144185520088   -0.23654349536820
C         0.14170788724882    0.39129003549165    0.36548268915242
C         1.50921689910756    0.01252551434085    0.14455532838840
N         1.77523657971076   -1.01496182307605   -0.69448788065792
N         3.10915105095546   -1.09743132537997   -0.66963126594713
C         3.65420132446138   -0.14075583662413    0.16785102300068
C         2.66744655540704    0.63746966010749    0.74834621168217
C        -0.25348411373893    1.41382223375310    1.17977691679364
S        -1.97600280145756    1.60467365249516    1.22439271771525
H        -3.66783998738707   -0.02723118208007   -1.39547862458635
H        -4.30365136071357    0.46857980234528    0.17987279555108
H        -3.73411964346171   -1.18921824211924   -0.06817592583805
H        -0.87067969958599   -1.08227766638120   -0.91138453676973
H         3.57013795142692   -1.80633524295992   -1.22843025668447
H         4.73590485163598   -0.11812441085266    0.26318015008377
H         0.36317355754582    2.06920591383589    1.75924664828253
