      -----------------------------------------------------------      
     |                   =====================                   |     
     |                           x T B                           |     
     |                   =====================                   |     
     |                         S. Grimme                         |     
     |          Mulliken Center for Theoretical Chemistry        |     
     |                    University of Bonn                     |     
      -----------------------------------------------------------      

   * xtb version 6.4.1 (afa7bdf) compiled by 'ehlert@majestix' on 2021-06-10

   xtb is free software: you can redistribute it and/or modify it under
   the terms of the GNU Lesser General Public License as published by
   the Free Software Foundation, either version 3 of the License, or
   (at your option) any later version.
   
   xtb is distributed in the hope that it will be useful,
   but WITHOUT ANY WARRANTY; without even the implied warranty of
   MERCHANTABILITY or FITNESS FOR A PARTICULAR PURPOSE.  See the
   GNU Lesser General Public License for more details.
   
   Cite this work as:
   * C. Bannwarth, E. Caldeweyher, S. Ehlert, A. Hansen, P. Pracht,
     J. Seibert, S. Spicher, S. Grimme, WIREs Comput. Mol. Sci., 2020, 11,
     e01493. DOI: 10.1002/wcms.1493
   
   for GFN2-xTB:
   * C. Bannwarth, S. Ehlert and S. Grimme., J. Chem. Theory Comput., 2019,
     15, 1652-1671. DOI: 10.1021/acs.jctc.8b01176
   for GFN1-xTB:
   * S. Grimme, C. Bannwarth, P. Shushkov, J. Chem. Theory Comput., 2017,
     13, 1989-2009. DOI: 10.1021/acs.jctc.7b00118
   for GFN0-xTB:
   * P. Pracht, E. Caldeweyher, S. Ehlert, S. Grimme, ChemRxiv, 2019, preprint.
     DOI: 10.26434/chemrxiv.8326202.v1
   for GFN-FF:
   * S. Spicher and S. Grimme, Angew. Chem. Int. Ed., 2020, 59, 15665-15673.
     DOI: 10.1002/anie.202004239
   
   for DFT-D4:
   * E. Caldeweyher, C. Bannwarth and S. Grimme, J. Chem. Phys., 2017,
     147, 034112. DOI: 10.1063/1.4993215
   * E. Caldeweyher, S. Ehlert, A. Hansen, H. Neugebauer, S. Spicher,
     C. Bannwarth and S. Grimme, J. Chem. Phys., 2019, 150, 154122.
     DOI: 10.1063/1.5090222
   * E. Caldeweyher, J.-M. Mewes, S. Ehlert and S. Grimme, Phys. Chem. Chem. Phys.
     2020, 22, 8499-8512. DOI: 10.1039/D0CP00502A
   
   for sTDA-xTB:
   * S. Grimme and C. Bannwarth, J. Chem. Phys., 2016, 145, 054103.
     DOI: 10.1063/1.4959605
   
   in the mass-spec context:
   * V. Asgeirsson, C. Bauer and S. Grimme, Chem. Sci., 2017, 8, 4879.
     DOI: 10.1039/c7sc00601b
   * J. Koopman and S. Grimme, ACS Omega 2019, 4, 12, 15120-15133.
     DOI: 10.1021/acsomega.9b02011
   
   for metadynamics refer to:
   * S. Grimme, J. Chem. Theory Comput., 2019, 155, 2847-2862
     DOI: 10.1021/acs.jctc.9b00143
   
   for SPH calculations refer to:
   * S. Spicher and S. Grimme, J. Chem. Theory Comput., 2021, 17, 1701-1714
     DOI: 10.1021/acs.jctc.0c01306
   
   with help from (in alphabetical order)
   P. Atkinson, C. Bannwarth, F. Bohle, G. Brandenburg, E. Caldeweyher
   M. Checinski, S. Dohm, S. Ehlert, S. Ehrlich, I. Gerasimov, J. Koopman
   C. Lavigne, S. Lehtola, F. März, M. Müller, F. Musil, H. Neugebauer
   J. Pisarek, C. Plett, P. Pracht, J. Seibert, P. Shushkov, S. Spicher
   M. Stahn, M. Steiner, T. Strunk, J. Stückrath, T. Rose, and J. Unsleber
   
 * started run on 2022/11/02 at 18:13:37.268     

           -------------------------------------------------
          |                Calculation Setup                |
           -------------------------------------------------

          program call               : /lustre/hpc/kemi/borup/pKalculator/dep/xtb-6.4.1/bin/xtb --gfn 2 /lustre/hpc/kemi/borup/pKalculator/calc/test#-1=1/conf07/test#-1=1_conf07_gfn2.xyz --opt --lmo --chrg -1 --uhf 0
          hostname                   : fend01.cluster
          coordinate file            : /lustre/hpc/kemi/borup/pKalculator/calc/test#-1=1/conf07/test#-1=1_conf07_gfn2.xyz
          omp threads                :                     1
          number of atoms            :                    18
          number of electrons        :                    56
          charge                     :                    -1
          spin                       :                   0.0
          first test random number   :      0.23609920268340

   ID    Z sym.   atoms
    1    6 C      1-5, 8-10
    2    7 N      6, 7
    3   16 S      11
    4    1 H      12-18

           -------------------------------------------------
          |                 G F N 2 - x T B                 |
           -------------------------------------------------

        Reference                      10.1021/acs.jctc.8b01176
      * Hamiltonian:
        H0-scaling (s, p, d)           1.850000    2.230000    2.230000
        zeta-weighting                 0.500000
      * Dispersion:
        s8                             2.700000
        a1                             0.520000
        a2                             5.000000
        s9                             5.000000
      * Repulsion:
        kExp                           1.500000    1.000000
        rExp                           1.000000
      * Coulomb:
        alpha                          2.000000
        third order                    shell-resolved
        anisotropic                    true
        a3                             3.000000
        a5                             4.000000
        cn-shift                       1.200000
        cn-exp                         4.000000
        max-rad                        5.000000


          ...................................................
          :                      SETUP                      :
          :.................................................:
          :  # basis functions                  57          :
          :  # atomic orbitals                  56          :
          :  # shells                           30          :
          :  # electrons                        56          :
          :  max. iterations                   250          :
          :  Hamiltonian                  GFN2-xTB          :
          :  restarted?                      false          :
          :  GBSA solvation                  false          :
          :  PC potential                    false          :
          :  electronic temp.          300.0000000     K    :
          :  accuracy                    1.0000000          :
          :  -> integral cutoff          0.2500000E+02      :
          :  -> integral neglect         0.1000000E-07      :
          :  -> SCF convergence          0.1000000E-05 Eh   :
          :  -> wf. convergence          0.1000000E-03 e    :
          :  Broyden damping             0.4000000          :
          ...................................................

 iter      E             dE          RMSdq      gap      omega  full diag
   1    -30.0741116 -0.300741E+02  0.448E+00    2.85       0.0  T
   2    -29.0513117  0.102280E+01  0.679E+00    0.80       1.0  T
   3    -30.2211677 -0.116986E+01  0.276E+00    2.41       1.0  T
   4    -30.2534428 -0.322751E-01  0.170E+00    1.36       1.0  T
   5    -30.2688704 -0.154276E-01  0.115E+00    0.90       1.0  T
   6    -30.2781925 -0.932204E-02  0.716E-01    0.48       1.0  T
   7    -30.2822448 -0.405231E-02  0.428E-01    0.23       1.0  T
   8    -30.2819487  0.296038E-03  0.351E-01    0.11       1.0  T
   9    -30.2813608  0.587916E-03  0.408E-01    0.30       1.0  T
  10    -30.2838240 -0.246317E-02  0.253E-01    0.21       1.0  T
  11    -30.2853067 -0.148275E-02  0.722E-02    0.14       1.0  T
  12    -30.2854347 -0.127923E-03  0.247E-02    0.14       1.0  T
  13    -30.2854411 -0.640688E-05  0.182E-02    0.15       1.3  T
  14    -30.2854406  0.430130E-06  0.186E-02    0.15       1.3  T
  15    -30.2854493 -0.866307E-05  0.459E-03    0.15       5.1  T
  16    -30.2854499 -0.568605E-06  0.161E-04    0.15     146.3  T
  17    -30.2854499 -0.110539E-09  0.454E-05    0.15     519.0  T

   *** convergence criteria satisfied after 17 iterations ***

         #    Occupation            Energy/Eh            Energy/eV
      -------------------------------------------------------------
         1        2.0000           -0.5763092             -15.6822
       ...           ...                  ...                  ...
        22        2.0000           -0.2453496              -6.6763
        23        2.0000           -0.2374437              -6.4612
        24        2.0000           -0.2315826              -6.3017
        25        2.0000           -0.1931961              -5.2571
        26        2.0000           -0.1832151              -4.9855
        27        2.0000           -0.1681952              -4.5768
        28        1.8915           -0.0911659              -2.4808 (HOMO)
        29        0.1085           -0.0857340              -2.3329 (LUMO)
        30                         -0.0585867              -1.5942
        31                         -0.0349872              -0.9520
        32                          0.0205353               0.5588
        33                          0.0236932               0.6447
       ...                                ...                  ...
        56                          0.8862384              24.1158
      -------------------------------------------------------------
                  HL-Gap            0.0054319 Eh            0.1478 eV
             Fermi-level           -0.0884500 Eh           -2.4068 eV
 
 localization/xTB-IFF output generation
 averaging CT terms over            1  occ. levels
 averaging CT terms over            1  virt. levels
 dipole moment from electron density (au)
     X       Y       Z   
   1.6049  -0.2224  -0.1683  total (Debye):    4.141
cpu  time for init local    0.00 s
wall time for init local    0.00 s
 doing rotations ...
 initialization of trafo matrix to unity

 converged in     26 iterations, threshold :   0.97609108D-06
 doing transformations ...
 lmo centers(Z=2) and atoms on file <lmocent.coord>
 LMO Fii/eV  ncent    charge center   contributions...
    1 sigma -11.21   1.97   5.46114  -0.45382  -0.75052    1C :  0.52    2C :  0.49
    2 sigma -10.97   1.94   4.31048   1.79647   0.21600   11S :  0.59    2C :  0.41
    3 sigma -10.91   1.99  -7.81992   0.96326   1.41114    7N :  0.53   16H :  0.47
    4 sigma -10.89   1.99   6.48130  -1.57816  -2.40073    1C :  0.51   14H :  0.50
    5 sigma -10.89   1.99   6.78524  -2.20187  -0.30245    1C :  0.51   12H :  0.50
    6 sigma -10.86   1.97   7.67249  -0.31162  -1.03369    1C :  0.51   13H :  0.50
    7 sigma -10.76   1.90   2.58765   3.34359   0.98096   11S :  0.61   10C :  0.39
    8 sigma -10.24   1.86  -6.68434  -0.48651   0.54300    7N :  0.62    8C :  0.39
    9 sigma -10.10   2.00   0.87172   0.00369  -0.10202    3C :  0.51    4C :  0.49
   10 LP    -10.04   1.14   5.05495   3.00297   3.23562   11S :  0.93
   11 LP    -10.02   1.15   4.57115   4.72923  -1.35093   11S :  0.93
   12 sigma  -9.88   2.01   0.15681   4.21944   1.57083   18H :  0.50   10C :  0.50
   13 pi     -9.81   1.88  -5.88953   0.72800   1.49104    7N :  0.66    6N :  0.32
   14 sigma  -9.66   2.02   1.64868  -2.02064  -0.94632    3C :  0.50   15H :  0.49
   15 pi     -9.61   1.86  -6.01939   1.06733   0.73123    7N :  0.67    6N :  0.30
   16 pi     -9.30   2.11   2.98587  -0.04632  -0.90458    2C :  0.50    3C :  0.48
   17 pi     -9.30   2.11   3.08668  -0.41444   0.07236    2C :  0.49    3C :  0.48
   18 sigma  -9.20   2.02  -1.34381   0.62369   0.37114    4C :  0.54    5C :  0.45
   19 sigma  -8.93   1.99  -7.36626  -2.76008  -0.46652   17H :  0.54    8C :  0.46
   20 pi     -8.81   2.16   0.43026   2.20226   0.22399   10C :  0.51    4C :  0.45
   21 pi     -8.78   2.17   0.53699   1.83939   1.18463   10C :  0.51    4C :  0.45
   22 delpi  -7.86   2.23  -3.71703   1.19685   0.46135    6N :  0.50    5C :  0.45
   23 sigma  -7.86   2.00  -3.22513  -0.80259  -0.06740    5C :  0.56    9C :  0.43
   24 delpi  -7.86   2.25  -3.59557   0.80694   1.26030    6N :  0.49    5C :  0.45
   25 pi     -6.88   2.20  -5.27470  -1.49598  -0.68516    8C :  0.56    9C :  0.38
   26 delpi  -6.87   2.20  -5.15570  -1.91750   0.20056    8C :  0.56    9C :  0.38
   27 LP     -6.39   1.03  -4.55644   3.43318   2.16928    6N :  0.99
   28 LP     -3.66   1.07  -2.88725  -3.43369  -1.38667    9C :  0.97
 starting deloc pi regularization ...
 thr    2.20000000000000      # pi deloc LMO           5
 files:
 coordprot.0/xtbscreen.xyz/xtblmoinfo/lmocent.coord
 with protonation site input, xtbdock and
 LMO center info written
 

 SCC (total)                   0 d,  0 h,  0 min,  0.053 sec
 SCC setup                      ...        0 min,  0.000 sec (  0.695%)
 Dispersion                     ...        0 min,  0.000 sec (  0.468%)
 classical contributions        ...        0 min,  0.000 sec (  0.133%)
 integral evaluation            ...        0 min,  0.005 sec (  8.841%)
 iterations                     ...        0 min,  0.020 sec ( 37.426%)
 molecular gradient             ...        0 min,  0.010 sec ( 18.068%)
 printout                       ...        0 min,  0.018 sec ( 34.262%)

         :::::::::::::::::::::::::::::::::::::::::::::::::::::
         ::                     SUMMARY                     ::
         :::::::::::::::::::::::::::::::::::::::::::::::::::::
         :: total energy             -29.863987816266 Eh    ::
         :: gradient norm              0.108408383333 Eh/a0 ::
         :: HOMO-LUMO gap              0.147810614536 eV    ::
         ::.................................................::
         :: SCC energy               -30.285449874689 Eh    ::
         :: -> isotropic ES            0.122080929303 Eh    ::
         :: -> anisotropic ES          0.006650912533 Eh    ::
         :: -> anisotropic XC          0.017892614320 Eh    ::
         :: -> dispersion             -0.018290189304 Eh    ::
         :: repulsion energy           0.421508006198 Eh    ::
         :: add. restraining           0.000000000000 Eh    ::
         :: total charge              -1.000000000000 e     ::
         :::::::::::::::::::::::::::::::::::::::::::::::::::::

      ----------------------------------------------------------- 
     |                   =====================                   |
     |                        A N C O P T                        |
     |                   =====================                   |
     |               Approximate Normal Coordinate               |
     |                Rational Function Optimizer                |
      ----------------------------------------------------------- 

          ...................................................
          :                      SETUP                      :
          :.................................................:
          :   optimization level            normal          :
          :   max. optcycles                   200          :
          :   ANC micro-cycles                  20          :
          :   degrees of freedom                48          :
          :.................................................:
          :   RF solver                   davidson          :
          :   write xtbopt.log                true          :
          :   linear?                        false          :
          :   energy convergence         0.5000000E-05 Eh   :
          :   grad. convergence          0.1000000E-02 Eh/α :
          :   maximium RF displ.         1.0000000          :
          :   Hlow (freq-cutoff)         0.1000000E-01      :
          :   Hmax (freq-cutoff)         5.0000000          :
          :   S6 in model hess.         20.0000000          :
          ...................................................

generating ANC from model Hessian ...
Using Lindh-Hessian (1995)
 Shifting diagonal of input Hessian by   7.997791808790048E-003
 Lowest  eigenvalues of input Hessian
    0.000000    0.000000    0.000000    0.000000    0.000000    0.000000
    0.010000    0.011738    0.012534    0.015659    0.019053    0.023764
    0.030606    0.042236    0.044020    0.049144    0.056016    0.060310
 Highest eigenvalues
    1.667885    1.769001    1.848051    1.880939    1.977146    2.028955
 

........................................................................
.............................. CYCLE    1 ..............................
........................................................................
   1    -30.2854499 -0.302854E+02  0.216E-04    0.15       0.0  T
   2    -30.2854497  0.136784E-06  0.219E-03    0.15      10.8  T
   3    -30.2854499 -0.137855E-06  0.813E-05    0.15     289.8  T
   4    -30.2854499 -0.105377E-09  0.496E-05    0.15     474.9  T
     SCC iter.                  ...        0 min,  0.005 sec
     gradient                   ...        0 min,  0.009 sec
 * total energy  :   -29.8639878 Eh     change        0.5830358E-10 Eh
   gradient norm :     0.1084077 Eh/α   predicted     0.0000000E+00 (-100.00%)
   displ. norm   :     0.2552081 α      lambda       -0.1654696E-01
   maximum displ.:     0.1253205 α      in ANC's #9, #13, #29, ...

........................................................................
.............................. CYCLE    2 ..............................
........................................................................
   1    -30.2865957 -0.302866E+02  0.472E-01    0.47       0.0  T
   2    -30.0975529  0.189043E+00  0.252E+00    0.01       1.0  T
   3    -30.2867815 -0.189229E+00  0.329E-01    0.43       1.0  T
   4    -30.2871938 -0.412269E-03  0.216E-01    0.38       1.0  T
   5    -30.2873411 -0.147320E-03  0.192E-01    0.37       1.0  T
   6    -30.2874382 -0.970524E-04  0.176E-01    0.35       1.0  T
   7    -30.2875899 -0.151784E-03  0.152E-01    0.33       1.0  T
   8    -30.2877107 -0.120775E-03  0.133E-01    0.31       1.0  T
   9    -30.2878038 -0.930853E-04  0.115E-01    0.29       1.0  T
  10    -30.2879611 -0.157337E-03  0.794E-02    0.26       1.0  T
  11    -30.2880828 -0.121654E-03  0.337E-02    0.24       1.0  T
  12    -30.2881091 -0.263522E-04  0.542E-03    0.22       4.4  T
  13    -30.2881097 -0.586600E-06  0.214E-03    0.22      11.0  T
  14    -30.2881098 -0.112778E-06  0.195E-04    0.22     120.9  T
  15    -30.2881098  0.110813E-09  0.139E-04    0.22     169.7  T
     SCC iter.                  ...        0 min,  0.017 sec
     gradient                   ...        0 min,  0.009 sec
 * total energy  :   -29.8757875 Eh     change       -0.1179965E-01 Eh
   gradient norm :     0.0483513 Eh/α   predicted    -0.8812343E-02 ( -25.32%)
   displ. norm   :     0.2466889 α      lambda       -0.6413231E-02
   maximum displ.:     0.1339809 α      in ANC's #9, #13, #21, ...

........................................................................
.............................. CYCLE    3 ..............................
........................................................................
   1    -30.2896597 -0.302897E+02  0.344E-01    0.50       0.0  T
   2    -30.2897341 -0.744045E-04  0.207E-01    0.45       1.0  T
   3    -30.2895979  0.136193E-03  0.114E-01    0.47       1.0  T
   4    -30.2897700 -0.172036E-03  0.309E-02    0.48       1.0  T
   5    -30.2897784 -0.847749E-05  0.190E-02    0.46       1.2  T
   6    -30.2897797 -0.123085E-05  0.815E-03    0.47       2.9  T
   7    -30.2897800 -0.285525E-06  0.397E-03    0.47       5.9  T
   8    -30.2897801 -0.108319E-06  0.145E-03    0.47      16.3  T
   9    -30.2897801 -0.815945E-08  0.703E-04    0.47      33.5  T
  10    -30.2897801 -0.376426E-08  0.239E-04    0.47      98.5  T
     SCC iter.                  ...        0 min,  0.011 sec
     gradient                   ...        0 min,  0.009 sec
 * total energy  :   -29.8792626 Eh     change       -0.3475161E-02 Eh
   gradient norm :     0.0122437 Eh/α   predicted    -0.3401759E-02 (  -2.11%)
   displ. norm   :     0.0696429 α      lambda       -0.2929986E-03
   maximum displ.:     0.0396433 α      in ANC's #7, #13, #3, ...

........................................................................
.............................. CYCLE    4 ..............................
........................................................................
   1    -30.2907006 -0.302907E+02  0.554E-02    0.48       0.0  T
   2    -30.2907024 -0.184651E-05  0.350E-02    0.48       1.0  T
   3    -30.2907008  0.164845E-05  0.216E-02    0.48       1.1  T
   4    -30.2907062 -0.545512E-05  0.376E-03    0.48       6.3  T
   5    -30.2907063 -0.813290E-07  0.217E-03    0.48      10.9  T
   6    -30.2907063 -0.343281E-07  0.763E-04    0.48      30.9  T
   7    -30.2907063 -0.182800E-08  0.394E-04    0.48      59.8  T
     SCC iter.                  ...        0 min,  0.008 sec
     gradient                   ...        0 min,  0.009 sec
 * total energy  :   -29.8794778 Eh     change       -0.2151630E-03 Eh
   gradient norm :     0.0065942 Eh/α   predicted    -0.1472117E-03 ( -31.58%)
   displ. norm   :     0.0866949 α      lambda       -0.1762814E-03
   maximum displ.:     0.0513540 α      in ANC's #7, #3, #2, ...

........................................................................
.............................. CYCLE    5 ..............................
........................................................................
   1    -30.2917559 -0.302918E+02  0.619E-02    0.47       0.0  T
   2    -30.2917572 -0.127618E-05  0.375E-02    0.46       1.0  T
   3    -30.2917522  0.495956E-05  0.248E-02    0.48       1.0  T
   4    -30.2917604 -0.815241E-05  0.384E-03    0.47       6.1  T
   5    -30.2917604 -0.732351E-07  0.252E-03    0.47       9.4  T
   6    -30.2917605 -0.592810E-07  0.724E-04    0.47      32.6  T
   7    -30.2917605 -0.482969E-08  0.376E-04    0.47      62.6  T
     SCC iter.                  ...        0 min,  0.008 sec
     gradient                   ...        0 min,  0.009 sec
 * total energy  :   -29.8795788 Eh     change       -0.1010503E-03 Eh
   gradient norm :     0.0027282 Eh/α   predicted    -0.8880208E-04 ( -12.12%)
   displ. norm   :     0.0407533 α      lambda       -0.2211800E-04
   maximum displ.:     0.0231240 α      in ANC's #2, #3, #1, ...

........................................................................
.............................. CYCLE    6 ..............................
........................................................................
   1    -30.2919277 -0.302919E+02  0.280E-02    0.47       0.0  T
   2    -30.2919279 -0.172877E-06  0.161E-02    0.47       1.5  T
   3    -30.2919272  0.663522E-06  0.674E-03    0.47       3.5  T
   4    -30.2919279 -0.755105E-06  0.150E-03    0.47      15.7  T
   5    -30.2919280 -0.160229E-07  0.745E-04    0.47      31.6  T
   6    -30.2919280 -0.347405E-08  0.296E-04    0.47      79.5  T
     SCC iter.                  ...        0 min,  0.007 sec
     gradient                   ...        0 min,  0.010 sec
 * total energy  :   -29.8795959 Eh     change       -0.1708615E-04 Eh
   gradient norm :     0.0018774 Eh/α   predicted    -0.1107829E-04 ( -35.16%)
   displ. norm   :     0.1043883 α      lambda       -0.2488247E-04
   maximum displ.:     0.0651886 α      in ANC's #2, #1, #4, ...

........................................................................
.............................. CYCLE    7 ..............................
........................................................................
   1    -30.2918718 -0.302919E+02  0.755E-02    0.47       0.0  T
   2    -30.2918732 -0.139747E-05  0.436E-02    0.47       1.0  T
   3    -30.2918675  0.577975E-05  0.196E-02    0.47       1.2  T
   4    -30.2918743 -0.683712E-05  0.353E-03    0.47       6.7  T
   5    -30.2918744 -0.847533E-07  0.186E-03    0.47      12.7  T
   6    -30.2918744 -0.236825E-07  0.766E-04    0.47      30.8  T
   7    -30.2918744 -0.451369E-08  0.281E-04    0.47      84.0  T
     SCC iter.                  ...        0 min,  0.008 sec
     gradient                   ...        0 min,  0.009 sec
 * total energy  :   -29.8796129 Eh     change       -0.1701240E-04 Eh
   gradient norm :     0.0019378 Eh/α   predicted    -0.1250254E-04 ( -26.51%)
   displ. norm   :     0.0242051 α      lambda       -0.6698269E-05
   maximum displ.:     0.0126852 α      in ANC's #1, #2, #4, ...

........................................................................
.............................. CYCLE    8 ..............................
........................................................................
   1    -30.2919002 -0.302919E+02  0.170E-02    0.47       0.0  T
   2    -30.2919003 -0.567162E-07  0.968E-03    0.47       2.4  T
   3    -30.2919002  0.939334E-07  0.294E-03    0.47       8.0  T
   4    -30.2919003 -0.111010E-06  0.819E-04    0.47      28.8  T
   5    -30.2919003 -0.429208E-08  0.453E-04    0.47      52.0  T
     SCC iter.                  ...        0 min,  0.006 sec
     gradient                   ...        0 min,  0.009 sec
 * total energy  :   -29.8796215 Eh     change       -0.8571054E-05 Eh
   gradient norm :     0.0014069 Eh/α   predicted    -0.3349083E-05 ( -60.93%)
   displ. norm   :     0.1042823 α      lambda       -0.1699856E-04
   maximum displ.:     0.0558855 α      in ANC's #4, #1, #2, ...

........................................................................
.............................. CYCLE    9 ..............................
........................................................................
   1    -30.2917419 -0.302917E+02  0.705E-02    0.47       0.0  T
   2    -30.2917424 -0.572468E-06  0.401E-02    0.47       1.0  T
   3    -30.2917422  0.247740E-06  0.543E-03    0.47       4.3  T
   4    -30.2917426 -0.395447E-06  0.276E-03    0.47       8.5  T
   5    -30.2917426 -0.546040E-07  0.998E-04    0.47      23.6  T
   6    -30.2917426 -0.970620E-08  0.371E-04    0.47      63.5  T
     SCC iter.                  ...        0 min,  0.007 sec
     gradient                   ...        0 min,  0.009 sec
 * total energy  :   -29.8796382 Eh     change       -0.1670749E-04 Eh
   gradient norm :     0.0007340 Eh/α   predicted    -0.8538582E-05 ( -48.89%)
   displ. norm   :     0.0835257 α      lambda       -0.5985020E-05
   maximum displ.:     0.0477798 α      in ANC's #4, #1, #2, ...

........................................................................
.............................. CYCLE   10 ..............................
........................................................................
   1    -30.2917478 -0.302917E+02  0.523E-02    0.47       0.0  T
   2    -30.2917481 -0.234490E-06  0.298E-02    0.47       1.0  T
   3    -30.2917475  0.525433E-06  0.608E-03    0.47       3.9  T
   4    -30.2917482 -0.639935E-06  0.199E-03    0.47      11.9  T
   5    -30.2917482 -0.163470E-07  0.694E-04    0.47      33.9  T
   6    -30.2917482 -0.617015E-08  0.222E-04    0.47     106.4  T
     SCC iter.                  ...        0 min,  0.007 sec
     gradient                   ...        0 min,  0.009 sec
 * total energy  :   -29.8796447 Eh     change       -0.6462159E-05 Eh
   gradient norm :     0.0006830 Eh/α   predicted    -0.3002861E-05 ( -53.53%)
   displ. norm   :     0.0775727 α      lambda       -0.4587106E-05
   maximum displ.:     0.0479626 α      in ANC's #4, #1, #5, ...

........................................................................
.............................. CYCLE   11 ..............................
........................................................................
   1    -30.2918711 -0.302919E+02  0.442E-02    0.47       0.0  T
   2    -30.2918712 -0.167646E-06  0.252E-02    0.46       1.0  T
   3    -30.2918709  0.344883E-06  0.514E-03    0.47       4.6  T
   4    -30.2918713 -0.421194E-06  0.177E-03    0.46      13.3  T
   5    -30.2918713 -0.118010E-07  0.728E-04    0.47      32.4  T
   6    -30.2918713 -0.700197E-08  0.188E-04    0.47     125.2  T
     SCC iter.                  ...        0 min,  0.007 sec
     gradient                   ...        0 min,  0.009 sec
 * total energy  :   -29.8796498 Eh     change       -0.5127958E-05 Eh
   gradient norm :     0.0005873 Eh/α   predicted    -0.2300302E-05 ( -55.14%)
   displ. norm   :     0.1065866 α      lambda       -0.5830197E-05
   maximum displ.:     0.0710875 α      in ANC's #4, #1, #5, ...

........................................................................
.............................. CYCLE   12 ..............................
........................................................................
   1    -30.2919283 -0.302919E+02  0.491E-02    0.46       0.0  T
   2    -30.2919285 -0.212640E-06  0.280E-02    0.46       1.0  T
   3    -30.2919283  0.193912E-06  0.473E-03    0.46       5.0  T
   4    -30.2919285 -0.271713E-06  0.193E-03    0.46      12.2  T
   5    -30.2919286 -0.170870E-07  0.625E-04    0.46      37.7  T
   6    -30.2919286 -0.557051E-08  0.228E-04    0.46     103.5  T
     SCC iter.                  ...        0 min,  0.007 sec
     gradient                   ...        0 min,  0.010 sec
 * total energy  :   -29.8796563 Eh     change       -0.6460001E-05 Eh
   gradient norm :     0.0008823 Eh/α   predicted    -0.2928116E-05 ( -54.67%)
   displ. norm   :     0.1718660 α      lambda       -0.9880430E-05
   maximum displ.:     0.1149217 α      in ANC's #4, #1, #5, ...

........................................................................
.............................. CYCLE   13 ..............................
........................................................................
   1    -30.2917435 -0.302917E+02  0.680E-02    0.46       0.0  T
   2    -30.2917439 -0.395469E-06  0.388E-02    0.46       1.0  T
   3    -30.2917437  0.253779E-06  0.621E-03    0.46       3.8  T
   4    -30.2917440 -0.298038E-06  0.341E-03    0.46       6.9  T
   5    -30.2917441 -0.964407E-07  0.109E-03    0.46      21.6  T
   6    -30.2917441 -0.115470E-07  0.392E-04    0.46      60.1  T
   7    -30.2917441 -0.101211E-08  0.164E-04    0.46     144.0  T
     SCC iter.                  ...        0 min,  0.008 sec
     gradient                   ...        0 min,  0.009 sec
 * total energy  :   -29.8796657 Eh     change       -0.9454624E-05 Eh
   gradient norm :     0.0021516 Eh/α   predicted    -0.5005868E-05 ( -47.05%)
   displ. norm   :     0.0825026 α      lambda       -0.1302694E-04
   maximum displ.:     0.0532238 α      in ANC's #4, #5, #1, ...

........................................................................
.............................. CYCLE   14 ..............................
........................................................................
   1    -30.2919841 -0.302920E+02  0.238E-02    0.46       0.0  T
   2    -30.2919842 -0.410537E-07  0.140E-02    0.46       1.7  T
   3    -30.2919836  0.562596E-06  0.605E-03    0.46       3.9  T
   4    -30.2919842 -0.621089E-06  0.121E-03    0.46      19.5  T
   5    -30.2919842 -0.420458E-08  0.583E-04    0.46      40.4  T
   6    -30.2919842 -0.279708E-08  0.179E-04    0.46     131.8  T
     SCC iter.                  ...        0 min,  0.007 sec
     gradient                   ...        0 min,  0.009 sec
 * total energy  :   -29.8796772 Eh     change       -0.1148297E-04 Eh
   gradient norm :     0.0022714 Eh/α   predicted    -0.6557979E-05 ( -42.89%)
   displ. norm   :     0.2438427 α      lambda       -0.4868208E-04
   maximum displ.:     0.1521509 α      in ANC's #4, #5, #2, ...

........................................................................
.............................. CYCLE   15 ..............................
........................................................................
   1    -30.2916876 -0.302917E+02  0.674E-02    0.46       0.0  T
   2    -30.2916881 -0.479315E-06  0.403E-02    0.47       1.0  T
   3    -30.2916792  0.881768E-05  0.234E-02    0.45       1.0  T
   4    -30.2916891 -0.984500E-05  0.318E-03    0.46       7.4  T
   5    -30.2916891 -0.324707E-07  0.157E-03    0.46      15.0  T
   6    -30.2916891 -0.136608E-07  0.738E-04    0.46      31.9  T
   7    -30.2916891 -0.518994E-08  0.242E-04    0.46      97.3  T
     SCC iter.                  ...        0 min,  0.008 sec
     gradient                   ...        0 min,  0.009 sec
 * total energy  :   -29.8797139 Eh     change       -0.3667465E-04 Eh
   gradient norm :     0.0035876 Eh/α   predicted    -0.2578677E-04 ( -29.69%)
   displ. norm   :     0.3096492 α      lambda       -0.1144232E-03
   maximum displ.:     0.2102790 α      in ANC's #2, #5, #4, ...

........................................................................
.............................. CYCLE   16 ..............................
........................................................................
   1    -30.2922273 -0.302922E+02  0.136E-01    0.46       0.0  T
   2    -30.2922294 -0.217273E-05  0.806E-02    0.48       1.0  T
   3    -30.2921960  0.334434E-04  0.441E-02    0.45       1.0  T
   4    -30.2922335 -0.375516E-04  0.476E-03    0.47       5.0  T
   5    -30.2922336 -0.957770E-07  0.275E-03    0.47       8.6  T
   6    -30.2922337 -0.461501E-07  0.126E-03    0.47      18.8  T
   7    -30.2922337 -0.104270E-07  0.430E-04    0.47      54.8  T
   8    -30.2922337 -0.168878E-08  0.166E-04    0.47     142.1  T
     SCC iter.                  ...        0 min,  0.009 sec
     gradient                   ...        0 min,  0.009 sec
 * total energy  :   -29.8797854 Eh     change       -0.7153697E-04 Eh
   gradient norm :     0.0034435 Eh/α   predicted    -0.6269890E-04 ( -12.35%)
   displ. norm   :     0.1908637 α      lambda       -0.5073716E-04
   maximum displ.:     0.1267407 α      in ANC's #2, #5, #4, ...

........................................................................
.............................. CYCLE   17 ..............................
........................................................................
   1    -30.2909017 -0.302909E+02  0.820E-02    0.48       0.0  T
   2    -30.2909026 -0.923574E-06  0.482E-02    0.48       1.0  T
   3    -30.2908938  0.877967E-05  0.224E-02    0.47       1.1  T
   4    -30.2909036 -0.981856E-05  0.302E-03    0.48       7.8  T
   5    -30.2909037 -0.594972E-07  0.169E-03    0.48      14.0  T
   6    -30.2909037 -0.147479E-07  0.760E-04    0.48      31.0  T
   7    -30.2909037 -0.253380E-08  0.251E-04    0.48      93.8  T
     SCC iter.                  ...        0 min,  0.008 sec
     gradient                   ...        0 min,  0.009 sec
 * total energy  :   -29.8798173 Eh     change       -0.3188688E-04 Eh
   gradient norm :     0.0047098 Eh/α   predicted    -0.2629268E-04 ( -17.54%)
   displ. norm   :     0.4437836 α      lambda       -0.2394862E-03
   maximum displ.:     0.3514735 α      in ANC's #2, #1, #5, ...

........................................................................
.............................. CYCLE   18 ..............................
........................................................................
   1    -30.2898040 -0.302898E+02  0.297E-01    0.51       0.0  T
   2    -30.2898224 -0.184503E-04  0.171E-01    0.54       1.0  T
   3    -30.2897599  0.625564E-04  0.654E-02    0.49       1.0  T
   4    -30.2898333 -0.734506E-04  0.117E-02    0.53       2.0  T
   5    -30.2898344 -0.106172E-05  0.686E-03    0.53       3.4  T
   6    -30.2898348 -0.361430E-06  0.273E-03    0.53       8.6  T
   7    -30.2898348 -0.265892E-07  0.117E-03    0.53      20.1  T
   8    -30.2898348 -0.142096E-07  0.507E-04    0.53      46.5  T
   9    -30.2898348 -0.860677E-09  0.215E-04    0.53     109.7  T
     SCC iter.                  ...        0 min,  0.010 sec
     gradient                   ...        0 min,  0.009 sec
 * total energy  :   -29.8796208 Eh     change        0.1965282E-03 Eh
   gradient norm :     0.0142917 Eh/α   predicted    -0.1433237E-03 (-172.93%)
   displ. norm   :     0.1764371 α      lambda       -0.5424722E-03
   maximum displ.:     0.1017121 α      in ANC's #2, #1, #4, ...

........................................................................
.............................. CYCLE   19 ..............................
........................................................................
   1    -30.2896187 -0.302896E+02  0.133E-01    0.50       0.0  T
   2    -30.2896297 -0.109603E-04  0.764E-02    0.48       1.0  T
   3    -30.2896113  0.183356E-04  0.410E-02    0.51       1.0  T
   4    -30.2896349 -0.235742E-04  0.940E-03    0.49       2.5  T
   5    -30.2896358 -0.859513E-06  0.471E-03    0.49       5.0  T
   6    -30.2896359 -0.173493E-06  0.209E-03    0.49      11.3  T
   7    -30.2896360 -0.122025E-07  0.931E-04    0.49      25.3  T
   8    -30.2896360 -0.863195E-08  0.400E-04    0.49      58.9  T
     SCC iter.                  ...        0 min,  0.009 sec
     gradient                   ...        0 min,  0.009 sec
 * total energy  :   -29.8798872 Eh     change       -0.2664270E-03 Eh
   gradient norm :     0.0052052 Eh/α   predicted    -0.2796804E-03 (   4.97%)
   displ. norm   :     0.3238758 α      lambda       -0.1394374E-03
   maximum displ.:     0.2474765 α      in ANC's #2, #5, #3, ...

........................................................................
.............................. CYCLE   20 ..............................
........................................................................
   1    -30.2940741 -0.302941E+02  0.180E-01    0.47       0.0  T
   2    -30.2940820 -0.789601E-05  0.105E-01    0.45       1.0  T
   3    -30.2940312  0.508394E-04  0.566E-02    0.49       1.0  T
   4    -30.2940898 -0.586125E-04  0.903E-03    0.46       2.6  T
   5    -30.2940907 -0.890263E-06  0.423E-03    0.46       5.6  T
   6    -30.2940908 -0.108809E-06  0.182E-03    0.46      12.9  T
   7    -30.2940908 -0.666080E-08  0.781E-04    0.46      30.2  T
   8    -30.2940908 -0.763086E-08  0.311E-04    0.46      75.7  T
     SCC iter.                  ...        0 min,  0.009 sec
     gradient                   ...        0 min,  0.009 sec
 * total energy  :   -29.8798699 Eh     change        0.1727533E-04 Eh
   gradient norm :     0.0039974 Eh/α   predicted    -0.7703506E-04 (-545.93%)
   displ. norm   :     0.1620763 α      lambda       -0.6716610E-04
   maximum displ.:     0.1092565 α      in ANC's #2, #5, #4, ...
 * RMSD in coord.:     0.3546388 α      energy gain  -0.1588211E-01 Eh

generating ANC from model Hessian ...
Using Lindh-Hessian (1995)
 Shifting diagonal of input Hessian by   7.925390861839819E-003
 Lowest  eigenvalues of input Hessian
    0.000000    0.000000    0.000000    0.000000    0.000000    0.000000
    0.010000    0.011916    0.013010    0.015672    0.018725    0.024283
    0.031141    0.042420    0.044210    0.045507    0.056589    0.060948
 Highest eigenvalues
    1.600271    1.787135    1.891930    1.935876    1.965790    2.032629
 

........................................................................
.............................. CYCLE   21 ..............................
........................................................................
   1    -30.2924771 -0.302925E+02  0.758E-02    0.47       0.0  T
   2    -30.2924781 -0.109421E-05  0.443E-02    0.47       1.0  T
   3    -30.2924738  0.434042E-05  0.169E-02    0.46       1.4  T
   4    -30.2924788 -0.498393E-05  0.300E-03    0.47       7.9  T
   5    -30.2924789 -0.866561E-07  0.167E-03    0.47      14.1  T
   6    -30.2924789 -0.179735E-07  0.737E-04    0.47      32.0  T
   7    -30.2924789 -0.167214E-08  0.264E-04    0.47      89.4  T
     SCC iter.                  ...        0 min,  0.008 sec
     gradient                   ...        0 min,  0.009 sec
 * total energy  :   -29.8799281 Eh     change       -0.5812365E-04 Eh
   gradient norm :     0.0015944 Eh/α   predicted     0.0000000E+00 (-100.00%)
   displ. norm   :     0.0354525 α      lambda       -0.1155409E-04
   maximum displ.:     0.0214859 α      in ANC's #4, #3, #5, ...

........................................................................
.............................. CYCLE   22 ..............................
........................................................................
   1    -30.2924711 -0.302925E+02  0.134E-02    0.47       0.0  T
   2    -30.2924713 -0.180103E-06  0.874E-03    0.47       2.7  T
   3    -30.2924712  0.662017E-07  0.569E-03    0.47       4.1  T
   4    -30.2924716 -0.338390E-06  0.149E-03    0.47      15.8  T
   5    -30.2924716 -0.210717E-07  0.617E-04    0.47      38.2  T
   6    -30.2924716 -0.391801E-08  0.246E-04    0.47      95.6  T
     SCC iter.                  ...        0 min,  0.007 sec
     gradient                   ...        0 min,  0.009 sec
 * total energy  :   -29.8799422 Eh     change       -0.1419359E-04 Eh
   gradient norm :     0.0005903 Eh/α   predicted    -0.5781588E-05 ( -59.27%)
   displ. norm   :     0.1449565 α      lambda       -0.3272541E-04
   maximum displ.:     0.0907467 α      in ANC's #4, #3, #5, ...

........................................................................
.............................. CYCLE   23 ..............................
........................................................................
   1    -30.2920693 -0.302921E+02  0.453E-02    0.48       0.0  T
   2    -30.2920703 -0.101529E-05  0.286E-02    0.47       1.0  T
   3    -30.2920676  0.275156E-05  0.200E-02    0.48       1.2  T
   4    -30.2920728 -0.526689E-05  0.413E-03    0.47       5.7  T
   5    -30.2920730 -0.123003E-06  0.205E-03    0.47      11.5  T
   6    -30.2920730 -0.389664E-07  0.670E-04    0.47      35.2  T
   7    -30.2920730 -0.152374E-08  0.274E-04    0.47      86.1  T
     SCC iter.                  ...        0 min,  0.008 sec
     gradient                   ...        0 min,  0.009 sec
 * total energy  :   -29.8799765 Eh     change       -0.3429965E-04 Eh
   gradient norm :     0.0025794 Eh/α   predicted    -0.1651536E-04 ( -51.85%)
   displ. norm   :     0.1164925 α      lambda       -0.2801478E-04
   maximum displ.:     0.0751148 α      in ANC's #4, #3, #5, ...

........................................................................
.............................. CYCLE   24 ..............................
........................................................................
   1    -30.2918017 -0.302918E+02  0.364E-02    0.47       0.0  T
   2    -30.2918019 -0.195271E-06  0.220E-02    0.46       1.1  T
   3    -30.2917985  0.335245E-05  0.156E-02    0.47       1.5  T
   4    -30.2918027 -0.415329E-05  0.234E-03    0.47      10.1  T
   5    -30.2918027 -0.300429E-07  0.129E-03    0.47      18.3  T
   6    -30.2918027 -0.141025E-07  0.312E-04    0.47      75.4  T
   7    -30.2918027 -0.402313E-09  0.175E-04    0.47     135.0  T
     SCC iter.                  ...        0 min,  0.008 sec
     gradient                   ...        0 min,  0.009 sec
 * total energy  :   -29.8799984 Eh     change       -0.2189431E-04 Eh
   gradient norm :     0.0032388 Eh/α   predicted    -0.1419715E-04 ( -35.16%)
   displ. norm   :     0.1976634 α      lambda       -0.4468695E-04
   maximum displ.:     0.1283769 α      in ANC's #4, #5, #3, ...

........................................................................
.............................. CYCLE   25 ..............................
........................................................................
   1    -30.2911468 -0.302911E+02  0.594E-02    0.47       0.0  T
   2    -30.2911472 -0.467838E-06  0.355E-02    0.46       1.0  T
   3    -30.2911388  0.846916E-05  0.234E-02    0.47       1.0  T
   4    -30.2911486 -0.986710E-05  0.366E-03    0.46       6.4  T
   5    -30.2911487 -0.450967E-07  0.208E-03    0.46      11.3  T
   6    -30.2911487 -0.400453E-07  0.487E-04    0.46      48.4  T
   7    -30.2911487 -0.134699E-08  0.272E-04    0.46      86.7  T
     SCC iter.                  ...        0 min,  0.008 sec
     gradient                   ...        0 min,  0.009 sec
 * total energy  :   -29.8800234 Eh     change       -0.2491915E-04 Eh
   gradient norm :     0.0044278 Eh/α   predicted    -0.2321875E-04 (  -6.82%)
   displ. norm   :     0.0531156 α      lambda       -0.3809933E-04
   maximum displ.:     0.0332440 α      in ANC's #4, #5, #6, ...

........................................................................
.............................. CYCLE   26 ..............................
........................................................................
   1    -30.2918891 -0.302919E+02  0.193E-02    0.46       0.0  T
   2    -30.2918895 -0.333861E-06  0.113E-02    0.46       2.1  T
   3    -30.2918893  0.181903E-06  0.496E-03    0.46       4.8  T
   4    -30.2918895 -0.243884E-06  0.140E-03    0.46      16.9  T
   5    -30.2918896 -0.162171E-07  0.558E-04    0.46      42.3  T
   6    -30.2918896 -0.167773E-08  0.301E-04    0.46      78.3  T
     SCC iter.                  ...        0 min,  0.007 sec
     gradient                   ...        0 min,  0.009 sec
 * total energy  :   -29.8800534 Eh     change       -0.3007937E-04 Eh
   gradient norm :     0.0024087 Eh/α   predicted    -0.1910416E-04 ( -36.49%)
   displ. norm   :     0.1876816 α      lambda       -0.5676254E-04
   maximum displ.:     0.1252550 α      in ANC's #4, #5, #2, ...

........................................................................
.............................. CYCLE   27 ..............................
........................................................................
   1    -30.2919127 -0.302919E+02  0.566E-02    0.45       0.0  T
   2    -30.2919137 -0.952211E-06  0.333E-02    0.45       1.0  T
   3    -30.2919124  0.124517E-05  0.106E-02    0.45       2.2  T
   4    -30.2919139 -0.145044E-05  0.285E-03    0.45       8.3  T
   5    -30.2919139 -0.585120E-07  0.122E-03    0.45      19.3  T
   6    -30.2919139 -0.939721E-08  0.544E-04    0.45      43.4  T
   7    -30.2919139 -0.365726E-08  0.189E-04    0.45     124.7  T
     SCC iter.                  ...        0 min,  0.008 sec
     gradient                   ...        0 min,  0.009 sec
 * total energy  :   -29.8800924 Eh     change       -0.3900380E-04 Eh
   gradient norm :     0.0029010 Eh/α   predicted    -0.2937989E-04 ( -24.67%)
   displ. norm   :     0.1280123 α      lambda       -0.5676757E-04
   maximum displ.:     0.0726863 α      in ANC's #4, #3, #5, ...

........................................................................
.............................. CYCLE   28 ..............................
........................................................................
   1    -30.2928631 -0.302929E+02  0.391E-02    0.45       0.0  T
   2    -30.2928641 -0.103861E-05  0.242E-02    0.46       1.0  T
   3    -30.2928619  0.224296E-05  0.167E-02    0.45       1.4  T
   4    -30.2928655 -0.365579E-05  0.376E-03    0.46       6.3  T
   5    -30.2928656 -0.120267E-06  0.165E-03    0.45      14.3  T
   6    -30.2928657 -0.290711E-07  0.625E-04    0.45      37.7  T
   7    -30.2928657 -0.172892E-08  0.219E-04    0.45     107.6  T
     SCC iter.                  ...        0 min,  0.008 sec
     gradient                   ...        0 min,  0.010 sec
 * total energy  :   -29.8801291 Eh     change       -0.3667770E-04 Eh
   gradient norm :     0.0030253 Eh/α   predicted    -0.2884883E-04 ( -21.35%)
   displ. norm   :     0.2894926 α      lambda       -0.6018991E-04
   maximum displ.:     0.1891269 α      in ANC's #4, #5, #2, ...

........................................................................
.............................. CYCLE   29 ..............................
........................................................................
   1    -30.2904032 -0.302904E+02  0.877E-02    0.45       0.0  T
   2    -30.2904061 -0.291982E-05  0.515E-02    0.46       1.0  T
   3    -30.2903975  0.867768E-05  0.244E-02    0.45       1.0  T
   4    -30.2904071 -0.963149E-05  0.637E-03    0.46       3.7  T
   5    -30.2904075 -0.423161E-06  0.265E-03    0.46       8.9  T
   6    -30.2904075 -0.396587E-07  0.135E-03    0.46      17.5  T
   7    -30.2904076 -0.136894E-07  0.325E-04    0.46      72.5  T
   8    -30.2904076 -0.588479E-09  0.204E-04    0.46     115.7  T
     SCC iter.                  ...        0 min,  0.009 sec
     gradient                   ...        0 min,  0.009 sec
 * total energy  :   -29.8801061 Eh     change        0.2299566E-04 Eh
   gradient norm :     0.0081371 Eh/α   predicted    -0.3261865E-04 (-241.85%)
   displ. norm   :     0.1466562 α      lambda       -0.1637268E-03
   maximum displ.:     0.0982176 α      in ANC's #4, #5, #6, ...

........................................................................
.............................. CYCLE   30 ..............................
........................................................................
   1    -30.2927184 -0.302927E+02  0.534E-02    0.46       0.0  T
   2    -30.2927209 -0.249053E-05  0.304E-02    0.47       1.0  T
   3    -30.2927204  0.462986E-06  0.999E-03    0.46       2.4  T
   4    -30.2927209 -0.529836E-06  0.444E-03    0.46       5.3  T
   5    -30.2927211 -0.210832E-06  0.168E-03    0.46      14.1  T
   6    -30.2927212 -0.105512E-07  0.885E-04    0.46      26.6  T
   7    -30.2927212 -0.670578E-08  0.279E-04    0.46      84.5  T
     SCC iter.                  ...        0 min,  0.008 sec
     gradient                   ...        0 min,  0.009 sec
 * total energy  :   -29.8801723 Eh     change       -0.6616190E-04 Eh
   gradient norm :     0.0022658 Eh/α   predicted    -0.8362468E-04 (  26.39%)
   displ. norm   :     0.0763161 α      lambda       -0.2052841E-04
   maximum displ.:     0.0419149 α      in ANC's #4, #2, #3, ...

........................................................................
.............................. CYCLE   31 ..............................
........................................................................
   1    -30.2926126 -0.302926E+02  0.224E-02    0.46       0.0  T
   2    -30.2926127 -0.123722E-06  0.136E-02    0.47       1.7  T
   3    -30.2926114  0.128319E-05  0.968E-03    0.46       2.4  T
   4    -30.2926130 -0.154984E-05  0.142E-03    0.47      16.5  T
   5    -30.2926130 -0.201545E-07  0.594E-04    0.47      39.7  T
   6    -30.2926130 -0.156248E-08  0.272E-04    0.47      86.7  T
     SCC iter.                  ...        0 min,  0.007 sec
     gradient                   ...        0 min,  0.009 sec
 * total energy  :   -29.8801903 Eh     change       -0.1804850E-04 Eh
   gradient norm :     0.0016544 Eh/α   predicted    -0.1032279E-04 ( -42.81%)
   displ. norm   :     0.4025439 α      lambda       -0.5391617E-04
   maximum displ.:     0.2263039 α      in ANC's #4, #2, #5, ...

........................................................................
.............................. CYCLE   32 ..............................
........................................................................
   1    -30.2894656 -0.302895E+02  0.123E-01    0.47       0.0  T
   2    -30.2894714 -0.582592E-05  0.732E-02    0.49       1.0  T
   3    -30.2894398  0.315906E-04  0.474E-02    0.46       1.0  T
   4    -30.2894768 -0.369522E-04  0.824E-03    0.48       2.9  T
   5    -30.2894773 -0.562964E-06  0.345E-03    0.48       6.8  T
   6    -30.2894774 -0.489241E-07  0.172E-03    0.48      13.7  T
   7    -30.2894774 -0.139745E-07  0.603E-04    0.48      39.1  T
   8    -30.2894774 -0.381796E-08  0.313E-04    0.48      75.3  T
     SCC iter.                  ...        0 min,  0.009 sec
     gradient                   ...        0 min,  0.010 sec
 * total energy  :   -29.8801116 Eh     change        0.7875463E-04 Eh
   gradient norm :     0.0091958 Eh/α   predicted    -0.2890066E-04 (-136.70%)
   displ. norm   :     0.1872138 α      lambda       -0.2172714E-03
   maximum displ.:     0.1123319 α      in ANC's #4, #5, #2, ...

........................................................................
.............................. CYCLE   33 ..............................
........................................................................
   1    -30.2921734 -0.302922E+02  0.606E-02    0.48       0.0  T
   2    -30.2921757 -0.233186E-05  0.354E-02    0.47       1.0  T
   3    -30.2921702  0.551154E-05  0.205E-02    0.48       1.1  T
   4    -30.2921766 -0.636739E-05  0.523E-03    0.47       4.5  T
   5    -30.2921769 -0.280333E-06  0.188E-03    0.47      12.5  T
   6    -30.2921769 -0.136156E-07  0.994E-04    0.48      23.7  T
   7    -30.2921769 -0.621814E-08  0.304E-04    0.47      77.5  T
     SCC iter.                  ...        0 min,  0.008 sec
     gradient                   ...        0 min,  0.009 sec
 * total energy  :   -29.8802139 Eh     change       -0.1022716E-03 Eh
   gradient norm :     0.0020348 Eh/α   predicted    -0.1124393E-03 (   9.94%)
   displ. norm   :     0.0105631 α      lambda       -0.5549750E-05
   maximum displ.:     0.0095632 α      in ANC's #3, #7, #4, ...

........................................................................
.............................. CYCLE   34 ..............................
........................................................................
   1    -30.2924729 -0.302925E+02  0.508E-03    0.47       0.0  T
   2    -30.2924729 -0.476787E-07  0.314E-03    0.47       7.5  T
   3    -30.2924729  0.147777E-07  0.211E-03    0.47      11.2  T
   4    -30.2924730 -0.428593E-07  0.713E-04    0.47      33.0  T
   5    -30.2924730 -0.621945E-08  0.249E-04    0.47      94.8  T
     SCC iter.                  ...        0 min,  0.006 sec
     gradient                   ...        0 min,  0.009 sec
 * total energy  :   -29.8802184 Eh     change       -0.4574755E-05 Eh
   gradient norm :     0.0012304 Eh/α   predicted    -0.2774447E-05 ( -39.35%)
   displ. norm   :     0.0453307 α      lambda       -0.9536973E-05
   maximum displ.:     0.0204073 α      in ANC's #3, #2, #5, ...

........................................................................
.............................. CYCLE   35 ..............................
........................................................................
   1    -30.2931885 -0.302932E+02  0.170E-02    0.47       0.0  T
   2    -30.2931888 -0.270390E-06  0.102E-02    0.47       2.3  T
   3    -30.2931883  0.432099E-06  0.679E-03    0.47       3.5  T
   4    -30.2931889 -0.598749E-06  0.180E-03    0.47      13.1  T
   5    -30.2931890 -0.416140E-07  0.616E-04    0.47      38.2  T
   6    -30.2931890 -0.241262E-08  0.269E-04    0.47      87.6  T
     SCC iter.                  ...        0 min,  0.007 sec
     gradient                   ...        0 min,  0.009 sec
 * total energy  :   -29.8802264 Eh     change       -0.7965557E-05 Eh
   gradient norm :     0.0009688 Eh/α   predicted    -0.4773272E-05 ( -40.08%)
   displ. norm   :     0.0633501 α      lambda       -0.5592090E-05
   maximum displ.:     0.0346366 α      in ANC's #4, #2, #5, ...

........................................................................
.............................. CYCLE   36 ..............................
........................................................................
   1    -30.2930976 -0.302931E+02  0.183E-02    0.47       0.0  T
   2    -30.2930977 -0.281332E-07  0.109E-02    0.47       2.2  T
   3    -30.2930972  0.469053E-06  0.514E-03    0.47       4.6  T
   4    -30.2930977 -0.517270E-06  0.744E-04    0.47      31.7  T
   5    -30.2930977 -0.303526E-08  0.393E-04    0.47      60.0  T
     SCC iter.                  ...        0 min,  0.006 sec
     gradient                   ...        0 min,  0.009 sec
 * total energy  :   -29.8802341 Eh     change       -0.7665819E-05 Eh
   gradient norm :     0.0010255 Eh/α   predicted    -0.2801569E-05 ( -63.45%)
   displ. norm   :     0.4195320 α      lambda       -0.3250363E-04
   maximum displ.:     0.2319675 α      in ANC's #4, #2, #5, ...

........................................................................
.............................. CYCLE   37 ..............................
........................................................................
   1    -30.2893961 -0.302894E+02  0.130E-01    0.47       0.0  T
   2    -30.2894010 -0.485478E-05  0.767E-02    0.46       1.0  T
   3    -30.2893886  0.123692E-04  0.283E-02    0.47       1.0  T
   4    -30.2894020 -0.134162E-04  0.799E-03    0.46       2.9  T
   5    -30.2894027 -0.719417E-06  0.288E-03    0.46       8.2  T
   6    -30.2894028 -0.198087E-07  0.172E-03    0.46      13.7  T
   7    -30.2894028 -0.265935E-07  0.386E-04    0.46      61.1  T
   8    -30.2894028 -0.345111E-10  0.191E-04    0.46     123.6  T
     SCC iter.                  ...        0 min,  0.009 sec
     gradient                   ...        0 min,  0.010 sec
 * total energy  :   -29.8801244 Eh     change        0.1096866E-03 Eh
   gradient norm :     0.0096665 Eh/α   predicted    -0.1752018E-04 (-115.97%)
   displ. norm   :     0.2253030 α      lambda       -0.2739257E-03
   maximum displ.:     0.1263182 α      in ANC's #4, #2, #5, ...

........................................................................
.............................. CYCLE   38 ..............................
........................................................................
   1    -30.2922404 -0.302922E+02  0.725E-02    0.46       0.0  T
   2    -30.2922428 -0.239630E-05  0.423E-02    0.47       1.0  T
   3    -30.2922406  0.219203E-05  0.133E-02    0.46       1.8  T
   4    -30.2922427 -0.216381E-05  0.578E-03    0.47       4.1  T
   5    -30.2922432 -0.480901E-06  0.167E-03    0.47      14.1  T
   6    -30.2922432 -0.146314E-08  0.104E-03    0.47      22.6  T
   7    -30.2922432 -0.112719E-07  0.233E-04    0.47     101.2  T
   8    -30.2922432 -0.123102E-09  0.929E-05    0.47     253.6  T
     SCC iter.                  ...        0 min,  0.009 sec
     gradient                   ...        0 min,  0.010 sec
 * total energy  :   -29.8802464 Eh     change       -0.1219984E-03 Eh
   gradient norm :     0.0018780 Eh/α   predicted    -0.1439108E-03 (  17.96%)
   displ. norm   :     0.0058908 α      lambda       -0.4225300E-05
   maximum displ.:     0.0025168 α      in ANC's #2, #7, #24, ...

........................................................................
.............................. CYCLE   39 ..............................
........................................................................
   1    -30.2926501 -0.302927E+02  0.599E-03    0.47       0.0  T
   2    -30.2926502 -0.622240E-07  0.329E-03    0.47       7.2  T
   3    -30.2926502  0.140273E-07  0.163E-03    0.47      14.5  T
   4    -30.2926502 -0.187610E-07  0.699E-04    0.47      33.7  T
   5    -30.2926502 -0.613928E-08  0.210E-04    0.47     112.1  T
     SCC iter.                  ...        0 min,  0.006 sec
     gradient                   ...        0 min,  0.010 sec
 * total energy  :   -29.8802504 Eh     change       -0.4065478E-05 Eh
   gradient norm :     0.0007839 Eh/α   predicted    -0.2112601E-05 ( -48.04%)
   displ. norm   :     0.0184351 α      lambda       -0.1712411E-05
   maximum displ.:     0.0098253 α      in ANC's #4, #2, #5, ...

   *** GEOMETRY OPTIMIZATION CONVERGED AFTER 39 ITERATIONS ***

------------------------------------------------------------------------
 total energy gain   :        -0.0162626 Eh      -10.2049 kcal/mol
 total RMSD          :         0.6704252 a0        0.3548 Å
 total power (kW/mol):        -1.0948078 (step)  -47.2117 (real)
------------------------------------------------------------------------

 ANCopt (total)                0 d,  0 h,  0 min,  0.904 sec
 optimizer setup                ...        0 min,  0.001 sec (  0.060%)
 model hessian                  ...        0 min,  0.005 sec (  0.560%)
 ANC generation                 ...        0 min,  0.001 sec (  0.160%)
 coordinate transformation      ...        0 min,  0.001 sec (  0.067%)
 single point calculation       ...        0 min,  0.878 sec ( 97.049%)
 optimization log               ...        0 min,  0.006 sec (  0.709%)
 hessian update                 ...        0 min,  0.001 sec (  0.076%)
 rational function              ...        0 min,  0.008 sec (  0.903%)

================
 final structure:
================
18
 xtb: 6.4.1 (afa7bdf)
C         3.48407840843631   -0.56241081615422   -0.61088806367840
C         2.19849333371051    0.05872148767529   -0.18096797772868
C         0.94221512505294   -0.41847438119748   -0.30205408816622
C        -0.07248117147887    0.44136363591122    0.22676441720347
C        -1.46389840573514    0.09380430571589    0.18423380134886
N        -2.39524731251207    0.92876382411510    0.69445035791296
N        -3.54432980108907    0.27963468186561    0.47778267468451
C        -3.32731826815804   -0.93021120035635   -0.15248001547313
C        -1.97771644157389   -1.13644663317529   -0.38533894228862
C         0.47008478758624    1.57934831856724    0.74817436714913
S         2.20262337367471    1.62222101550373    0.60609042830699
H         4.12397247321854   -0.77020205565627    0.25006267137223
H         4.03259729150572    0.10229054591185   -1.28079296177422
H         3.28197990528543   -1.49784290431293   -1.13029788173913
H         0.68483750085106   -1.36139711184987   -0.75292503714460
H        -4.41500970390886    0.70571316913383    0.77348764698727
H        -4.19638187964887   -1.54147709286681   -0.37676935141723
H        -0.02850021521637    2.40660021116944    1.21146495444506
 
 Bond Distances (Angstroems)
 ---------------------------
C1-C2=1.4911         C1-H12=1.0926        C1-H13=1.0915        C1-H14=1.0889        C2-C1=1.4911         C2-C3=1.3493         
C2-S11=1.7504        C3-C2=1.3493         C3-C4=1.4313         C3-H15=1.0764        C4-C3=1.4313         C4-C5=1.4348         
C4-C10=1.3643        C5-C4=1.4348         C5-N6=1.3509         C5-C9=1.4498         N6-C5=1.3509         N6-N7=1.3374         
N7-N6=1.3374         N7-C8=1.3813         N7-H16=1.0134        C8-N7=1.3813         C8-C9=1.3850         C8-H17=1.0859        
C9-C5=1.4498         C9-C8=1.3850         C10-C4=1.3643        C10-S11=1.7389       C10-H18=1.0712       S11-C2=1.7504        
S11-C10=1.7389       H12-C1=1.0926        H13-C1=1.0915        H14-C1=1.0889        H15-C3=1.0764        H16-N7=1.0134        
H17-C8=1.0859        H18-C10=1.0712       
 C  H  Rav=1.0844 sigma=0.0079  Rmin=1.0712  Rmax=1.0926     6
 C  C  Rav=1.4151 sigma=0.0470  Rmin=1.3493  Rmax=1.4911     7
 N  H  Rav=1.0134 sigma=0.0000  Rmin=1.0134  Rmax=1.0134     1
 N  C  Rav=1.3661 sigma=0.0152  Rmin=1.3509  Rmax=1.3813     2
 N  N  Rav=1.3374 sigma=0.0000  Rmin=1.3374  Rmax=1.3374     1
 S  C  Rav=1.7447 sigma=0.0058  Rmin=1.7389  Rmax=1.7504     2
 
 selected bond angles (degree)
 --------------------
H12-C1-C2=110.91               H13-C1-C2=110.89               H13-C1-H12=107.76              H14-C1-C2=109.60               
H14-C1-H12=108.73              H14-C1-H13=108.88              C3-C2-C1=129.02                S11-C2-C1=119.98               
S11-C2-C3=111.00               C4-C3-C2=114.48                H15-C3-C2=124.75               H15-C3-C4=120.76               
C5-C4-C3=122.08                C10-C4-C3=111.12               C10-C4-C5=126.80               N6-C5-C4=120.51                
C9-C5-C4=124.12                C9-C5-N6=115.37                N7-N6-C5=103.37                C8-N7-N6=111.35                
H16-N7-N6=119.13               H16-N7-C8=129.52               C9-C8-N7=111.11                H17-C8-N7=117.49               
H17-C8-C9=131.40               C8-C9-C5= 98.80                S11-C10-C4=112.68              H18-C10-C4=128.63              
H18-C10-S11=118.69             
 
 selected dihedral angles (degree)
 ---------------------------------
C3-C2-C1-H12=243.49           C3-C2-C1-H13=123.79           C3-C2-C1-H14=  3.55           S11-C2-C1-H12= 63.25          
S11-C2-C1-H13=303.55          S11-C2-C1-H14=183.32          C4-C3-C2-C1=179.80            C4-C3-C2-S11=  0.00           
H15-C3-C2-C1=359.76           H15-C3-C2-S11=179.98          C5-C4-C3-C2=180.02            C5-C4-C3-H15=  0.06           
C10-C4-C3-C2=  0.00           C10-C4-C3-H15=180.04          N6-C5-C4-C3=179.92            N6-C5-C4-C10=359.95           
C9-C5-C4-C3=  0.00            C9-C5-C4-C10=180.04           N7-N6-C5-C4=180.05            N7-N6-C5-C9=359.96            
C8-N7-N6-C5=  0.00            H16-N7-N6-C5=180.15           C9-C8-N7-N6=  0.02            C9-C8-N7-H16=179.86           
H17-C8-N7-N6=179.99           H17-C8-N7-H16=359.83          C8-C9-C5-C4=179.96            C8-C9-C5-N6=  0.05            
C5-C9-C8-N7=359.96            C5-C9-C8-H17=180.00           S11-C10-C4-C3=  0.00          S11-C10-C4-C5=179.96          
H18-C10-C4-C3=179.98          H18-C10-C4-C5=359.95          
           -------------------------------------------------
          |                Final Singlepoint                |
           -------------------------------------------------

          ...................................................
          :                      SETUP                      :
          :.................................................:
          :  # basis functions                  57          :
          :  # atomic orbitals                  56          :
          :  # shells                           30          :
          :  # electrons                        56          :
          :  max. iterations                   250          :
          :  Hamiltonian                  GFN2-xTB          :
          :  restarted?                      false          :
          :  GBSA solvation                  false          :
          :  PC potential                    false          :
          :  electronic temp.          300.0000000     K    :
          :  accuracy                    1.0000000          :
          :  -> integral cutoff          0.2500000E+02      :
          :  -> integral neglect         0.1000000E-07      :
          :  -> SCF convergence          0.1000000E-05 Eh   :
          :  -> wf. convergence          0.1000000E-03 e    :
          :  Broyden damping             0.4000000          :
          ...................................................

 iter      E             dE          RMSdq      gap      omega  full diag
   1    -30.2926502 -0.302927E+02  0.132E-04    0.47       0.0  T
   2    -30.2926502 -0.520117E-11  0.109E-04    0.47     215.6  T
   3    -30.2926502 -0.136499E-09  0.427E-05    0.47     552.2  T

   *** convergence criteria satisfied after 3 iterations ***

         #    Occupation            Energy/Eh            Energy/eV
      -------------------------------------------------------------
         1        2.0000           -0.5798065             -15.7773
       ...           ...                  ...                  ...
        22        2.0000           -0.2498338              -6.7983
        23        2.0000           -0.2366026              -6.4383
        24        2.0000           -0.2273588              -6.1867
        25        2.0000           -0.1933959              -5.2626
        26        2.0000           -0.1818498              -4.9484
        27        2.0000           -0.1588736              -4.3232
        28        1.9998           -0.1061137              -2.8875 (HOMO)
        29        0.0002           -0.0889370              -2.4201 (LUMO)
        30                         -0.0620465              -1.6884
        31                         -0.0357299              -0.9723
        32                          0.0238292               0.6484
        33                          0.0261395               0.7113
       ...                                ...                  ...
        56                          0.8671524              23.5964
      -------------------------------------------------------------
                  HL-Gap            0.0171767 Eh            0.4674 eV
             Fermi-level           -0.0975254 Eh           -2.6538 eV
 
 localization/xTB-IFF output generation
 averaging CT terms over            1  occ. levels
 averaging CT terms over            1  virt. levels
 dipole moment from electron density (au)
     X       Y       Z   
   1.5530  -0.1116  -0.2013  total (Debye):    3.990
cpu  time for init local    0.00 s
wall time for init local    0.00 s
 doing rotations ...
 initialization of trafo matrix to unity

 converged in     35 iterations, threshold :   0.98648104D-06
 doing transformations ...
 lmo centers(Z=2) and atoms on file <lmocent.coord>
 LMO Fii/eV  ncent    charge center   contributions...
    1 sigma -11.28   1.97   5.39575  -0.47571  -0.75096    1C :  0.52    2C :  0.49
    2 sigma -11.07   1.93   4.26877   1.63013   0.41257   11S :  0.59    2C :  0.41
    3 sigma -10.98   1.99  -7.74777   1.02095   1.24894    7N :  0.53   16H :  0.47
    4 sigma -10.97   1.99   7.24137  -0.22558  -1.98430    1C :  0.51   13H :  0.49
    5 sigma -10.97   1.99   7.35230  -1.31319  -0.07315    1C :  0.51   12H :  0.50
    6 sigma -10.93   1.98   6.32108  -2.22348  -1.79864    1C :  0.51   14H :  0.50
    7 sigma -10.81   1.89   2.61836   3.11768   1.31744   11S :  0.61   10C :  0.39
    8 sigma -10.40   1.86  -6.62260  -0.45013   0.40185    7N :  0.62    8C :  0.38
    9 sigma -10.21   2.00   0.80197  -0.02297  -0.09173    3C :  0.51    4C :  0.48
   10 LP    -10.12   1.14   4.63393   4.70201  -0.84812   11S :  0.94
   11 LP    -10.11   1.14   5.04767   2.49073   3.54345   11S :  0.93
   12 sigma  -9.94   2.01   0.27382   4.03538   2.00057   18H :  0.50   10C :  0.50
   13 pi     -9.74   1.88  -5.93269   1.07849   0.64330    7N :  0.66    6N :  0.31
   14 sigma  -9.73   2.02   1.48836  -1.95141  -1.12831    3C :  0.51   15H :  0.48
   15 pi     -9.71   1.87  -5.86760   0.70295   1.37589    7N :  0.66    6N :  0.31
   16 pi     -9.51   2.09   2.90685  -0.05407  -0.89967    2C :  0.50    3C :  0.48
   17 pi     -9.50   2.10   2.99484  -0.52716   0.03955    2C :  0.50    3C :  0.48
   18 sigma  -9.36   2.02  -1.36242   0.55270   0.40321    4C :  0.55    5C :  0.44
   19 pi     -8.86   2.16   0.40962   2.13632   0.44957   10C :  0.51    4C :  0.45
   20 pi     -8.84   2.17   0.49663   1.67210   1.37317   10C :  0.51    4C :  0.45
   21 sigma  -8.82   1.99  -7.43348  -2.56941  -0.58676   17H :  0.55    8C :  0.45
   22 delpi  -7.78   2.27  -3.54480   0.75206   1.21143    6N :  0.49    5C :  0.45
   23 delpi  -7.78   2.27  -3.62064   1.15012   0.42195    6N :  0.49    5C :  0.45
   24 sigma  -7.60   2.01  -3.14200  -0.91596  -0.16615    5C :  0.56    9C :  0.42
   25 delpi  -6.64   2.23  -5.08051  -1.93616   0.05319    8C :  0.56    9C :  0.36
   26 delpi  -6.64   2.23  -5.16301  -1.50037  -0.81235    8C :  0.56    9C :  0.36
   27 LP     -6.37   1.02  -4.42727   3.39712   2.12980    6N :  0.99
   28 LP     -4.01   1.05  -2.67859  -3.61508  -1.56831    9C :  0.97
 starting deloc pi regularization ...
 thr    2.20000000000000      # pi deloc LMO           5
 files:
 coordprot.0/xtbscreen.xyz/xtblmoinfo/lmocent.coord
 with protonation site input, xtbdock and
 LMO center info written
 

 SCC (total)                   0 d,  0 h,  0 min,  0.033 sec
 SCC setup                      ...        0 min,  0.000 sec (  0.603%)
 Dispersion                     ...        0 min,  0.000 sec (  0.349%)
 classical contributions        ...        0 min,  0.000 sec (  0.110%)
 integral evaluation            ...        0 min,  0.004 sec ( 13.550%)
 iterations                     ...        0 min,  0.004 sec ( 12.265%)
 molecular gradient             ...        0 min,  0.009 sec ( 29.046%)
 printout                       ...        0 min,  0.014 sec ( 43.926%)

         :::::::::::::::::::::::::::::::::::::::::::::::::::::
         ::                     SUMMARY                     ::
         :::::::::::::::::::::::::::::::::::::::::::::::::::::
         :: total energy             -29.880250436629 Eh    ::
         :: gradient norm              0.000786577717 Eh/a0 ::
         :: HOMO-LUMO gap              0.467400643131 eV    ::
         ::.................................................::
         :: SCC energy               -30.292650184792 Eh    ::
         :: -> isotropic ES            0.122971332892 Eh    ::
         :: -> anisotropic ES          0.005536572636 Eh    ::
         :: -> anisotropic XC          0.018179143583 Eh    ::
         :: -> dispersion             -0.018412774494 Eh    ::
         :: repulsion energy           0.412444113827 Eh    ::
         :: add. restraining           0.000000000000 Eh    ::
         :: total charge              -1.000000000000 e     ::
         :::::::::::::::::::::::::::::::::::::::::::::::::::::

           -------------------------------------------------
          |                Property Printout                |
           -------------------------------------------------

    * Orbital Energies and Occupations

         #    Occupation            Energy/Eh            Energy/eV
      -------------------------------------------------------------
         1        2.0000           -0.5798065             -15.7773
       ...           ...                  ...                  ...
        16        2.0000           -0.3266913              -8.8897
        17        2.0000           -0.3183012              -8.6614
        18        2.0000           -0.3159195              -8.5966
        19        2.0000           -0.3069298              -8.3520
        20        2.0000           -0.3007701              -8.1844
        21        2.0000           -0.2746034              -7.4723
        22        2.0000           -0.2498338              -6.7983
        23        2.0000           -0.2366026              -6.4383
        24        2.0000           -0.2273588              -6.1867
        25        2.0000           -0.1933959              -5.2626
        26        2.0000           -0.1818498              -4.9484
        27        2.0000           -0.1588736              -4.3232
        28        1.9998           -0.1061137              -2.8875 (HOMO)
        29        0.0002           -0.0889370              -2.4201 (LUMO)
        30                         -0.0620465              -1.6884
        31                         -0.0357299              -0.9723
        32                          0.0238292               0.6484
        33                          0.0261395               0.7113
        34                          0.0992364               2.7004
        35                          0.1341496               3.6504
        36                          0.1621454               4.4122
        37                          0.1767748               4.8103
        38                          0.1956012               5.3226
        39                          0.2454957               6.6803
       ...                                ...                  ...
        56                          0.8671524              23.5964
      -------------------------------------------------------------
                  HL-Gap            0.0171767 Eh            0.4674 eV
             Fermi-level           -0.0975254 Eh           -2.6538 eV

     #   Z          covCN         q      C6AA      α(0)
     1   6 C        3.773    -0.092    22.279     6.726
     2   6 C        2.972     0.019    27.573     8.613
     3   6 C        3.117    -0.057    29.233     8.856
     4   6 C        3.127    -0.004    27.918     8.651
     5   6 C        3.252     0.043    26.008     8.253
     6   7 N        1.952    -0.336    29.550     8.061
     7   7 N        2.952    -0.053    22.264     7.008
     8   6 C        3.067    -0.020    28.448     8.746
     9   6 C        2.002    -0.361    42.546    10.534
    10   6 C        2.941    -0.031    28.784     8.799
    11  16 S        2.289    -0.222   150.525    20.649
    12   1 H        0.924     0.027     2.635     2.539
    13   1 H        0.924     0.027     2.625     2.533
    14   1 H        0.925     0.028     2.615     2.529
    15   1 H        0.926     0.036     2.498     2.471
    16   1 H        0.860     0.074     2.060     2.248
    17   1 H        0.925    -0.087     5.129     3.542
    18   1 H        0.926     0.009     2.905     2.666

 Mol. C6AA /au·bohr⁶  :       5952.211991
 Mol. C8AA /au·bohr⁸  :     164321.417096
 Mol. α(0) /au        :        123.423757


Wiberg/Mayer (AO) data.
largest (>0.10) Wiberg bond orders for each atom

 ---------------------------------------------------------------------------
     #   Z sym  total        # sym  WBO       # sym  WBO       # sym  WBO
 ---------------------------------------------------------------------------
     1   6 C    3.998 --     2 C    1.028    14 H    0.983    13 H    0.978
                            12 H    0.976
     2   6 C    3.939 --     3 C    1.667    11 S    1.100     1 C    1.028
                            10 C    0.105
     3   6 C    3.986 --     2 C    1.667     4 C    1.180    15 H    0.959
     4   6 C    3.977 --    10 C    1.542     3 C    1.180     5 C    1.109
     5   6 C    3.934 --     6 N    1.371     9 C    1.223     4 C    1.109
                             7 N    0.104
     6   7 N    2.911 --     5 C    1.371     7 N    1.199     8 C    0.203
     7   7 N    3.536 --     6 N    1.199     8 C    1.157    16 H    0.955
                             5 C    0.104
     8   6 C    3.884 --     9 C    1.519     7 N    1.157    17 H    0.961
                             6 N    0.203
     9   6 C    2.998 --     8 C    1.519     5 C    1.223
    10   6 C    3.905 --     4 C    1.542    11 S    1.107    18 H    0.972
                             2 C    0.105
    11  16 S    2.495 --    10 C    1.107     2 C    1.100
    12   1 H    0.999 --     1 C    0.976
    13   1 H    0.999 --     1 C    0.978
    14   1 H    0.999 --     1 C    0.983
    15   1 H    0.999 --     3 C    0.959
    16   1 H    0.994 --     7 N    0.955
    17   1 H    0.992 --     8 C    0.961
    18   1 H    1.000 --    10 C    0.972
 ---------------------------------------------------------------------------

Topologies differ in total number of bonds
Writing topology from bond orders to xtbtopo.mol

molecular dipole:
                 x           y           z       tot (Debye)
 q only:        2.376      -0.244      -0.348
   full:        1.553      -0.112      -0.201       3.989
molecular quadrupole (traceless):
                xx          xy          yy          xz          yz          zz
 q only:      -15.512      -9.269       4.451      -2.023      -3.142      11.061
  q+dip:       -6.986     -12.665      -0.909      -4.799      -4.022       7.895
   full:       -7.734     -12.906      -1.438      -4.671      -5.216       9.172

           -------------------------------------------------
          |                Geometry Summary                 |
           -------------------------------------------------

      molecular mass/u    :      163.2196663
   center of mass at/Å    :       -0.0368330       0.3459690       0.1768254
  moments of inertia/u·Å² :        0.1777038E+03   0.9346600E+03   0.1109225E+04
rotational constants/cm⁻¹ :        0.9486363E-01   0.1803611E-01   0.1519766E-01

 * 17 selected distances

     #   Z          #   Z                                           value/Å
     2   6 C        3   6 C                                       1.3493008
     3   6 C        4   6 C                                       1.4312858
     4   6 C        5   6 C                                       1.4347990
     5   6 C        6   7 N                                       1.3508846
     6   7 N        7   7 N                                       1.3374244
     7   7 N        8   6 C                                       1.3813226
     8   6 C        9   6 C                                       1.3849843
     4   6 C       10   6 C                                       1.3642783
     2   6 C       11  16 S                                       1.7504310 (max)
    10   6 C       11  16 S                                       1.7388835
     1   6 C       12   1 H                                       1.0926471
     1   6 C       13   1 H                                       1.0915464
     1   6 C       14   1 H                                       1.0888818
     3   6 C       15   1 H                                       1.0763973
     7   7 N       16   1 H                                       1.0134435 (min)
     8   6 C       17   1 H                                       1.0859205
    10   6 C       18   1 H                                       1.0712473

 * 6 distinct bonds (by element types)

   Z      Z             #   av. dist./Å        max./Å        min./Å
   1 H    6 C           6     1.0844401     1.0926471     1.0712473
   6 C    6 C           5     1.3929296     1.4347990     1.3493008
   1 H    7 N           1     1.0134435     1.0134435     1.0134435
   6 C    7 N           2     1.3661036     1.3813226     1.3508846
   7 N    7 N           1     1.3374244     1.3374244     1.3374244
   6 C   16 S           2     1.7446573     1.7504310     1.7388835


optimized geometry written to: xtbopt.xyz


           -------------------------------------------------
          | TOTAL ENERGY              -29.880250436629 Eh   |
          | GRADIENT NORM               0.000786577717 Eh/α |
          | HOMO-LUMO GAP               0.467400643131 eV   |
           -------------------------------------------------

------------------------------------------------------------------------
 * finished run on 2022/11/02 at 18:13:38.334     
------------------------------------------------------------------------
 total:
 * wall-time:     0 d,  0 h,  0 min,  1.067 sec
 *  cpu-time:     0 d,  0 h,  0 min,  1.010 sec
 * ratio c/w:     0.947 speedup
 SCF:
 * wall-time:     0 d,  0 h,  0 min,  0.054 sec
 *  cpu-time:     0 d,  0 h,  0 min,  0.047 sec
 * ratio c/w:     0.878 speedup
 ANC optimizer:
 * wall-time:     0 d,  0 h,  0 min,  0.941 sec
 *  cpu-time:     0 d,  0 h,  0 min,  0.934 sec
 * ratio c/w:     0.993 speedup

