18
 energy: -29.880250436629 gnorm: 0.000786577717 xtb: 6.4.1 (afa7bdf)
C         3.48407840843631   -0.56241081615422   -0.61088806367840
C         2.19849333371051    0.05872148767529   -0.18096797772868
C         0.94221512505294   -0.41847438119748   -0.30205408816622
C        -0.07248117147887    0.44136363591122    0.22676441720347
C        -1.46389840573514    0.09380430571589    0.18423380134886
N        -2.39524731251207    0.92876382411510    0.69445035791296
N        -3.54432980108907    0.27963468186561    0.47778267468451
C        -3.32731826815804   -0.93021120035635   -0.15248001547313
C        -1.97771644157389   -1.13644663317529   -0.38533894228862
C         0.47008478758624    1.57934831856724    0.74817436714913
S         2.20262337367471    1.62222101550373    0.60609042830699
H         4.12397247321854   -0.77020205565627    0.25006267137223
H         4.03259729150572    0.10229054591185   -1.28079296177422
H         3.28197990528543   -1.49784290431293   -1.13029788173913
H         0.68483750085106   -1.36139711184987   -0.75292503714460
H        -4.41500970390886    0.70571316913383    0.77348764698727
H        -4.19638187964887   -1.54147709286681   -0.37676935141723
H        -0.02850021521637    2.40660021116944    1.21146495444506
