      -----------------------------------------------------------      
     |                   =====================                   |     
     |                           x T B                           |     
     |                   =====================                   |     
     |                         S. Grimme                         |     
     |          Mulliken Center for Theoretical Chemistry        |     
     |                    University of Bonn                     |     
      -----------------------------------------------------------      

   * xtb version 6.4.1 (afa7bdf) compiled by 'ehlert@majestix' on 2021-06-10

   xtb is free software: you can redistribute it and/or modify it under
   the terms of the GNU Lesser General Public License as published by
   the Free Software Foundation, either version 3 of the License, or
   (at your option) any later version.
   
   xtb is distributed in the hope that it will be useful,
   but WITHOUT ANY WARRANTY; without even the implied warranty of
   MERCHANTABILITY or FITNESS FOR A PARTICULAR PURPOSE.  See the
   GNU Lesser General Public License for more details.
   
   Cite this work as:
   * C. Bannwarth, E. Caldeweyher, S. Ehlert, A. Hansen, P. Pracht,
     J. Seibert, S. Spicher, S. Grimme, WIREs Comput. Mol. Sci., 2020, 11,
     e01493. DOI: 10.1002/wcms.1493
   
   for GFN2-xTB:
   * C. Bannwarth, S. Ehlert and S. Grimme., J. Chem. Theory Comput., 2019,
     15, 1652-1671. DOI: 10.1021/acs.jctc.8b01176
   for GFN1-xTB:
   * S. Grimme, C. Bannwarth, P. Shushkov, J. Chem. Theory Comput., 2017,
     13, 1989-2009. DOI: 10.1021/acs.jctc.7b00118
   for GFN0-xTB:
   * P. Pracht, E. Caldeweyher, S. Ehlert, S. Grimme, ChemRxiv, 2019, preprint.
     DOI: 10.26434/chemrxiv.8326202.v1
   for GFN-FF:
   * S. Spicher and S. Grimme, Angew. Chem. Int. Ed., 2020, 59, 15665-15673.
     DOI: 10.1002/anie.202004239
   
   for DFT-D4:
   * E. Caldeweyher, C. Bannwarth and S. Grimme, J. Chem. Phys., 2017,
     147, 034112. DOI: 10.1063/1.4993215
   * E. Caldeweyher, S. Ehlert, A. Hansen, H. Neugebauer, S. Spicher,
     C. Bannwarth and S. Grimme, J. Chem. Phys., 2019, 150, 154122.
     DOI: 10.1063/1.5090222
   * E. Caldeweyher, J.-M. Mewes, S. Ehlert and S. Grimme, Phys. Chem. Chem. Phys.
     2020, 22, 8499-8512. DOI: 10.1039/D0CP00502A
   
   for sTDA-xTB:
   * S. Grimme and C. Bannwarth, J. Chem. Phys., 2016, 145, 054103.
     DOI: 10.1063/1.4959605
   
   in the mass-spec context:
   * V. Asgeirsson, C. Bauer and S. Grimme, Chem. Sci., 2017, 8, 4879.
     DOI: 10.1039/c7sc00601b
   * J. Koopman and S. Grimme, ACS Omega 2019, 4, 12, 15120-15133.
     DOI: 10.1021/acsomega.9b02011
   
   for metadynamics refer to:
   * S. Grimme, J. Chem. Theory Comput., 2019, 155, 2847-2862
     DOI: 10.1021/acs.jctc.9b00143
   
   for SPH calculations refer to:
   * S. Spicher and S. Grimme, J. Chem. Theory Comput., 2021, 17, 1701-1714
     DOI: 10.1021/acs.jctc.0c01306
   
   with help from (in alphabetical order)
   P. Atkinson, C. Bannwarth, F. Bohle, G. Brandenburg, E. Caldeweyher
   M. Checinski, S. Dohm, S. Ehlert, S. Ehrlich, I. Gerasimov, J. Koopman
   C. Lavigne, S. Lehtola, F. März, M. Müller, F. Musil, H. Neugebauer
   J. Pisarek, C. Plett, P. Pracht, J. Seibert, P. Shushkov, S. Spicher
   M. Stahn, M. Steiner, T. Strunk, J. Stückrath, T. Rose, and J. Unsleber
   
 * started run on 2022/11/02 at 18:13:38.959     

           -------------------------------------------------
          |                Calculation Setup                |
           -------------------------------------------------

          program call               : /lustre/hpc/kemi/borup/pKalculator/dep/xtb-6.4.1/bin/xtb --gfn 2 /lustre/hpc/kemi/borup/pKalculator/calc/test#-1=11/conf02/test#-1=11_conf02_gfn2.xyz --opt --lmo --chrg -1 --uhf 0
          hostname                   : fend01.cluster
          coordinate file            : /lustre/hpc/kemi/borup/pKalculator/calc/test#-1=11/conf02/test#-1=11_conf02_gfn2.xyz
          omp threads                :                     1
          number of atoms            :                    18
          number of electrons        :                    56
          charge                     :                    -1
          spin                       :                   0.0
          first test random number   :      0.24342728997176

   ID    Z sym.   atoms
    1    6 C      1-5, 8-10
    2    7 N      6, 7
    3   16 S      11
    4    1 H      12-18

           -------------------------------------------------
          |                 G F N 2 - x T B                 |
           -------------------------------------------------

        Reference                      10.1021/acs.jctc.8b01176
      * Hamiltonian:
        H0-scaling (s, p, d)           1.850000    2.230000    2.230000
        zeta-weighting                 0.500000
      * Dispersion:
        s8                             2.700000
        a1                             0.520000
        a2                             5.000000
        s9                             5.000000
      * Repulsion:
        kExp                           1.500000    1.000000
        rExp                           1.000000
      * Coulomb:
        alpha                          2.000000
        third order                    shell-resolved
        anisotropic                    true
        a3                             3.000000
        a5                             4.000000
        cn-shift                       1.200000
        cn-exp                         4.000000
        max-rad                        5.000000


          ...................................................
          :                      SETUP                      :
          :.................................................:
          :  # basis functions                  57          :
          :  # atomic orbitals                  56          :
          :  # shells                           30          :
          :  # electrons                        56          :
          :  max. iterations                   250          :
          :  Hamiltonian                  GFN2-xTB          :
          :  restarted?                      false          :
          :  GBSA solvation                  false          :
          :  PC potential                    false          :
          :  electronic temp.          300.0000000     K    :
          :  accuracy                    1.0000000          :
          :  -> integral cutoff          0.2500000E+02      :
          :  -> integral neglect         0.1000000E-07      :
          :  -> SCF convergence          0.1000000E-05 Eh   :
          :  -> wf. convergence          0.1000000E-03 e    :
          :  Broyden damping             0.4000000          :
          ...................................................

 iter      E             dE          RMSdq      gap      omega  full diag
   1    -30.1636085 -0.301636E+02  0.425E+00    2.94       0.0  T
   2    -29.0453865  0.111822E+01  0.639E+00    0.51       1.0  T
   3    -30.2195317 -0.117415E+01  0.280E+00    3.36       1.0  T
   4    -30.2673882 -0.478565E-01  0.180E+00    2.30       1.0  T
   5    -30.2814569 -0.140687E-01  0.131E+00    1.97       1.0  T
   6    -30.2934911 -0.120342E-01  0.966E-01    1.45       1.0  T
   7    -30.3004242 -0.693307E-02  0.708E-01    1.04       1.0  T
   8    -30.3049697 -0.454553E-02  0.424E-01    0.63       1.0  T
   9    -30.3070087 -0.203901E-02  0.249E-01    0.34       1.0  T
  10    -30.2966804  0.103283E-01  0.626E-01    0.10       1.0  T
  11    -30.3068001 -0.101196E-01  0.240E-01    0.39       1.0  T
  12    -30.3072830 -0.482909E-03  0.186E-01    0.31       1.0  T
  13    -30.3079412 -0.658182E-03  0.847E-02    0.23       1.0  T
  14    -30.3080742 -0.132984E-03  0.441E-02    0.18       1.0  T
  15    -30.3081217 -0.475890E-04  0.161E-02    0.20       1.5  T
  16    -30.3081243 -0.254664E-05  0.130E-02    0.20       1.8  T
  17    -30.3081289 -0.456149E-05  0.142E-03    0.20      16.6  T
  18    -30.3081289 -0.286455E-07  0.972E-04    0.20      24.3  T
  19    -30.3081289 -0.243244E-07  0.225E-04    0.20     104.7  T

   *** convergence criteria satisfied after 19 iterations ***

         #    Occupation            Energy/Eh            Energy/eV
      -------------------------------------------------------------
         1        2.0000           -0.5909719             -16.0812
       ...           ...                  ...                  ...
        22        2.0000           -0.2577268              -7.0131
        23        2.0000           -0.2474870              -6.7345
        24        2.0000           -0.2460152              -6.6944
        25        2.0000           -0.1883734              -5.1259
        26        2.0000           -0.1825097              -4.9663
        27        2.0000           -0.1636461              -4.4530
        28        1.9564           -0.1073348              -2.9207 (HOMO)
        29        0.0436           -0.1001051              -2.7240 (LUMO)
        30                         -0.0720769              -1.9613
        31                         -0.0409044              -1.1131
        32                          0.0064724               0.1761
        33                          0.0417858               1.1370
       ...                                ...                  ...
        56                          0.8931858              24.3048
      -------------------------------------------------------------
                  HL-Gap            0.0072296 Eh            0.1967 eV
             Fermi-level           -0.1037200 Eh           -2.8224 eV
 
 localization/xTB-IFF output generation
 averaging CT terms over            1  occ. levels
 averaging CT terms over            1  virt. levels
 dipole moment from electron density (au)
     X       Y       Z   
  -3.6000  -0.5039   0.6756  total (Debye):    9.398
cpu  time for init local    0.01 s
wall time for init local    0.01 s
 doing rotations ...
 initialization of trafo matrix to unity
iteration     50  convergence  0.20680153D-04

 converged in     71 iterations, threshold :   0.98139449D-06
 doing transformations ...
 lmo centers(Z=2) and atoms on file <lmocent.coord>
 LMO Fii/eV  ncent    charge center   contributions...
    1 sigma -11.59   1.97  -5.28588  -0.16221   0.59675    1C :  0.52    2C :  0.49
    2 sigma -11.39   1.94  -3.96248   1.75716  -0.75574   11S :  0.59    2C :  0.41
    3 sigma -11.21   2.00  -6.78372  -0.12751   2.24666    1C :  0.51   12H :  0.49
    4 sigma -11.18   1.98  -6.40631  -2.02669   1.19201    1C :  0.51   13H :  0.50
    5 sigma -11.18   1.98  -7.46335  -0.38698   0.16357    1C :  0.51   14H :  0.50
    6 sigma -11.17   1.90  -2.11652   3.01974  -1.73199   11S :  0.61   10C :  0.40
    7 sigma -11.00   1.97   5.05720  -2.20678   0.93333    7N :  0.53    6N :  0.47
    8 sigma -10.49   2.00  -0.66454  -0.08505   0.12161    3C :  0.52    4C :  0.48
    9 LP    -10.42   1.14  -4.49514   2.31503  -3.99910   11S :  0.93
   10 LP    -10.40   1.15  -4.11059   4.95888   0.14157   11S :  0.93
   11 sigma -10.30   2.01   0.37210   3.63971  -2.36110   10C :  0.50   18H :  0.50
   12 sigma -10.24   1.99   7.00271  -3.04258   1.27561    7N :  0.53   16H :  0.47
   13 sigma -10.09   2.02  -1.58248  -1.84442   1.33405    3C :  0.50   15H :  0.49
   14 pi     -9.73   2.11  -2.88363  -0.42522  -0.08203    2C :  0.50    3C :  0.48
   15 pi     -9.72   2.11  -2.80295   0.13670   0.79672    2C :  0.49    3C :  0.48
   16 sigma  -9.62   2.02   1.59659   0.27776  -0.32480    4C :  0.55    5C :  0.45
   17 sigma  -9.36   1.82   6.72088  -1.34282   0.21756    7N :  0.65    8C :  0.36
   18 pi     -9.20   2.16  -0.07116   1.97040  -0.63643   10C :  0.51    4C :  0.45
   19 pi     -9.20   2.16  -0.15419   1.41403  -1.50252   10C :  0.51    4C :  0.45
   20 sigma  -8.39   1.97   3.98415   0.56022  -0.73676    5C :  0.54    9C :  0.47
   21 pi     -8.22   2.16   3.40593  -0.93917   0.83461    6N :  0.52    5C :  0.44
   22 pi     -8.21   2.16   3.32970  -1.43931   0.05254    6N :  0.52    5C :  0.44
   23 sigma  -8.17   1.99   5.14242   2.35943  -2.00266   17H :  0.55    9C :  0.45
   24 pi     -7.04   1.57   5.95785  -1.91054   0.64724    7N :  0.79    6N :  0.10    8C :  0.08
   25 delpi  -6.58   2.24   5.83711   0.76245  -0.47596    9C :  0.56    8C :  0.37
   26 delpi  -6.55   2.26   5.75624   0.24610  -1.28137    9C :  0.55    8C :  0.37
   27 LP     -6.30   1.02   2.86564  -3.52225   1.98674    6N :  0.99
   28 LP     -4.15   1.05   9.21081   0.02570  -0.90528    8C :  0.98
 starting deloc pi regularization ...
 thr    2.20000000000000      # pi deloc LMO           5
 files:
 coordprot.0/xtbscreen.xyz/xtblmoinfo/lmocent.coord
 with protonation site input, xtbdock and
 LMO center info written
 

 SCC (total)                   0 d,  0 h,  0 min,  0.067 sec
 SCC setup                      ...        0 min,  0.000 sec (  0.467%)
 Dispersion                     ...        0 min,  0.000 sec (  0.366%)
 classical contributions        ...        0 min,  0.000 sec (  0.087%)
 integral evaluation            ...        0 min,  0.005 sec (  7.061%)
 iterations                     ...        0 min,  0.031 sec ( 46.752%)
 molecular gradient             ...        0 min,  0.011 sec ( 15.982%)
 printout                       ...        0 min,  0.019 sec ( 29.196%)

         :::::::::::::::::::::::::::::::::::::::::::::::::::::
         ::                     SUMMARY                     ::
         :::::::::::::::::::::::::::::::::::::::::::::::::::::
         :: total energy             -29.888183913114 Eh    ::
         :: gradient norm              0.117986182867 Eh/a0 ::
         :: HOMO-LUMO gap              0.196728716980 eV    ::
         ::.................................................::
         :: SCC energy               -30.308128908832 Eh    ::
         :: -> isotropic ES            0.122698641243 Eh    ::
         :: -> anisotropic ES          0.003743725220 Eh    ::
         :: -> anisotropic XC          0.017782319706 Eh    ::
         :: -> dispersion             -0.018561984134 Eh    ::
         :: repulsion energy           0.419973931540 Eh    ::
         :: add. restraining           0.000000000000 Eh    ::
         :: total charge              -1.000000000000 e     ::
         :::::::::::::::::::::::::::::::::::::::::::::::::::::

      ----------------------------------------------------------- 
     |                   =====================                   |
     |                        A N C O P T                        |
     |                   =====================                   |
     |               Approximate Normal Coordinate               |
     |                Rational Function Optimizer                |
      ----------------------------------------------------------- 

          ...................................................
          :                      SETUP                      :
          :.................................................:
          :   optimization level            normal          :
          :   max. optcycles                   200          :
          :   ANC micro-cycles                  20          :
          :   degrees of freedom                48          :
          :.................................................:
          :   RF solver                   davidson          :
          :   write xtbopt.log                true          :
          :   linear?                        false          :
          :   energy convergence         0.5000000E-05 Eh   :
          :   grad. convergence          0.1000000E-02 Eh/α :
          :   maximium RF displ.         1.0000000          :
          :   Hlow (freq-cutoff)         0.1000000E-01      :
          :   Hmax (freq-cutoff)         5.0000000          :
          :   S6 in model hess.         20.0000000          :
          ...................................................

generating ANC from model Hessian ...
Using Lindh-Hessian (1995)
 Shifting diagonal of input Hessian by   7.903501391853390E-003
 Lowest  eigenvalues of input Hessian
    0.000000    0.000000    0.000000    0.000000    0.000000    0.000000
    0.010000    0.011076    0.012923    0.015438    0.020486    0.024803
    0.029401    0.040044    0.041605    0.042726    0.051565    0.060873
 Highest eigenvalues
    1.702986    1.731839    1.845469    1.899217    1.942531    2.034700
 

........................................................................
.............................. CYCLE    1 ..............................
........................................................................
   1    -30.3081289 -0.303081E+02  0.260E-04    0.20       0.0  T
   2    -30.3081289  0.432179E-07  0.118E-03    0.20      20.0  T
   3    -30.3081289 -0.448664E-07  0.897E-05    0.20     262.7  T
   4    -30.3081289 -0.157190E-09  0.419E-05    0.20     562.3  T
     SCC iter.                  ...        0 min,  0.005 sec
     gradient                   ...        0 min,  0.010 sec
 * total energy  :   -29.8881839 Eh     change       -0.1385981E-08 Eh
   gradient norm :     0.1179890 Eh/α   predicted     0.0000000E+00 (-100.00%)
   displ. norm   :     0.1920479 α      lambda       -0.1301441E-01
   maximum displ.:     0.0786949 α      in ANC's #9, #22, #7, ...

........................................................................
.............................. CYCLE    2 ..............................
........................................................................
   1    -30.3119227 -0.303119E+02  0.331E-01    0.46       0.0  T
   2    -30.3122127 -0.290005E-03  0.209E-01    0.27       1.0  T
   3    -30.3121866  0.260623E-04  0.107E-01    0.37       1.0  T
   4    -30.3123107 -0.124100E-03  0.495E-02    0.28       1.0  T
   5    -30.3123375 -0.267668E-04  0.173E-02    0.31       1.4  T
   6    -30.3123384 -0.927773E-06  0.111E-02    0.30       2.1  T
   7    -30.3123390 -0.561505E-06  0.515E-03    0.30       4.6  T
   8    -30.3123392 -0.202135E-06  0.201E-03    0.31      11.7  T
   9    -30.3123392 -0.498987E-07  0.828E-04    0.31      28.5  T
  10    -30.3123392 -0.200860E-08  0.207E-04    0.31     113.8  T
     SCC iter.                  ...        0 min,  0.012 sec
     gradient                   ...        0 min,  0.010 sec
 * total energy  :   -29.8971082 Eh     change       -0.8924253E-02 Eh
   gradient norm :     0.0482201 Eh/α   predicted    -0.6747207E-02 ( -24.39%)
   displ. norm   :     0.1784568 α      lambda       -0.3817801E-02
   maximum displ.:     0.1046289 α      in ANC's #9, #7, #27, ...

........................................................................
.............................. CYCLE    3 ..............................
........................................................................
   1    -30.3140617 -0.303141E+02  0.219E-01    0.48       0.0  T
   2    -30.3141313 -0.695450E-04  0.115E-01    0.51       1.0  T
   3    -30.3141364 -0.515369E-05  0.821E-02    0.48       1.0  T
   4    -30.3141778 -0.413855E-04  0.172E-02    0.50       1.4  T
   5    -30.3141783 -0.460938E-06  0.112E-02    0.50       2.1  T
   6    -30.3141789 -0.673076E-06  0.506E-03    0.50       4.7  T
   7    -30.3141791 -0.186771E-06  0.211E-03    0.50      11.2  T
   8    -30.3141791 -0.113447E-07  0.920E-04    0.50      25.6  T
   9    -30.3141791 -0.652973E-08  0.340E-04    0.50      69.4  T
     SCC iter.                  ...        0 min,  0.010 sec
     gradient                   ...        0 min,  0.010 sec
 * total energy  :   -29.8992549 Eh     change       -0.2146760E-02 Eh
   gradient norm :     0.0116711 Eh/α   predicted    -0.1969693E-02 (  -8.25%)
   displ. norm   :     0.0904621 α      lambda       -0.2946335E-03
   maximum displ.:     0.0598716 α      in ANC's #7, #3, #9, ...

........................................................................
.............................. CYCLE    4 ..............................
........................................................................
   1    -30.3135305 -0.303135E+02  0.562E-02    0.51       0.0  T
   2    -30.3135354 -0.485453E-05  0.296E-02    0.53       1.0  T
   3    -30.3135344  0.937442E-06  0.196E-02    0.52       1.2  T
   4    -30.3135377 -0.323363E-05  0.548E-03    0.52       4.3  T
   5    -30.3135379 -0.239115E-06  0.230E-03    0.52      10.3  T
   6    -30.3135380 -0.450362E-07  0.116E-03    0.52      20.3  T
   7    -30.3135380 -0.469461E-08  0.515E-04    0.52      45.7  T
   8    -30.3135380 -0.244093E-08  0.236E-04    0.52     100.1  T
     SCC iter.                  ...        0 min,  0.010 sec
     gradient                   ...        0 min,  0.010 sec
 * total energy  :   -29.8994653 Eh     change       -0.2103624E-03 Eh
   gradient norm :     0.0062615 Eh/α   predicted    -0.1485227E-03 ( -29.40%)
   displ. norm   :     0.1098736 α      lambda       -0.1661941E-03
   maximum displ.:     0.0763177 α      in ANC's #3, #7, #4, ...

........................................................................
.............................. CYCLE    5 ..............................
........................................................................
   1    -30.3133235 -0.303133E+02  0.537E-02    0.52       0.0  T
   2    -30.3133285 -0.502872E-05  0.293E-02    0.52       1.0  T
   3    -30.3133276  0.939215E-06  0.177E-02    0.52       1.3  T
   4    -30.3133297 -0.208472E-05  0.669E-03    0.52       3.5  T
   5    -30.3133302 -0.495990E-06  0.210E-03    0.52      11.2  T
   6    -30.3133302 -0.375283E-07  0.921E-04    0.52      25.6  T
   7    -30.3133302 -0.175414E-08  0.379E-04    0.52      62.2  T
     SCC iter.                  ...        0 min,  0.008 sec
     gradient                   ...        0 min,  0.010 sec
 * total energy  :   -29.8995684 Eh     change       -0.1030934E-03 Eh
   gradient norm :     0.0034718 Eh/α   predicted    -0.8409960E-04 ( -18.42%)
   displ. norm   :     0.0679937 α      lambda       -0.4202499E-04
   maximum displ.:     0.0548781 α      in ANC's #3, #4, #7, ...

........................................................................
.............................. CYCLE    6 ..............................
........................................................................
   1    -30.3137478 -0.303137E+02  0.259E-02    0.52       0.0  T
   2    -30.3137485 -0.718430E-06  0.150E-02    0.52       1.6  T
   3    -30.3137480  0.483575E-06  0.105E-02    0.52       2.2  T
   4    -30.3137491 -0.106166E-05  0.285E-03    0.52       8.3  T
   5    -30.3137492 -0.754341E-07  0.108E-03    0.52      21.7  T
   6    -30.3137492 -0.695744E-08  0.532E-04    0.52      44.3  T
   7    -30.3137492 -0.692413E-09  0.234E-04    0.52     100.5  T
     SCC iter.                  ...        0 min,  0.008 sec
     gradient                   ...        0 min,  0.010 sec
 * total energy  :   -29.8995997 Eh     change       -0.3130137E-04 Eh
   gradient norm :     0.0025827 Eh/α   predicted    -0.2110768E-04 ( -32.57%)
   displ. norm   :     0.0735937 α      lambda       -0.3383579E-04
   maximum displ.:     0.0567462 α      in ANC's #3, #4, #5, ...

........................................................................
.............................. CYCLE    7 ..............................
........................................................................
   1    -30.3143162 -0.303143E+02  0.249E-02    0.51       0.0  T
   2    -30.3143165 -0.305670E-06  0.153E-02    0.51       1.5  T
   3    -30.3143159  0.595943E-06  0.109E-02    0.51       2.2  T
   4    -30.3143174 -0.143741E-05  0.213E-03    0.51      11.1  T
   5    -30.3143174 -0.178061E-07  0.110E-03    0.51      21.4  T
   6    -30.3143174 -0.945962E-08  0.498E-04    0.51      47.3  T
   7    -30.3143174 -0.176209E-08  0.206E-04    0.51     114.6  T
     SCC iter.                  ...        0 min,  0.008 sec
     gradient                   ...        0 min,  0.010 sec
 * total energy  :   -29.8996250 Eh     change       -0.2532527E-04 Eh
   gradient norm :     0.0016927 Eh/α   predicted    -0.1701146E-04 ( -32.83%)
   displ. norm   :     0.1257213 α      lambda       -0.2622862E-04
   maximum displ.:     0.0857471 α      in ANC's #3, #4, #5, ...

........................................................................
.............................. CYCLE    8 ..............................
........................................................................
   1    -30.3146526 -0.303147E+02  0.398E-02    0.51       0.0  T
   2    -30.3146534 -0.759887E-06  0.247E-02    0.51       1.0  T
   3    -30.3146512  0.215238E-05  0.171E-02    0.51       1.4  T
   4    -30.3146552 -0.394249E-05  0.320E-03    0.52       7.4  T
   5    -30.3146552 -0.463516E-07  0.158E-03    0.51      14.9  T
   6    -30.3146552 -0.178523E-07  0.706E-04    0.51      33.4  T
   7    -30.3146552 -0.487780E-08  0.247E-04    0.51      95.5  T
     SCC iter.                  ...        0 min,  0.008 sec
     gradient                   ...        0 min,  0.010 sec
 * total energy  :   -29.8996492 Eh     change       -0.2422245E-04 Eh
   gradient norm :     0.0025138 Eh/α   predicted    -0.1320628E-04 ( -45.48%)
   displ. norm   :     0.0540478 α      lambda       -0.1443277E-04
   maximum displ.:     0.0332268 α      in ANC's #4, #3, #5, ...

........................................................................
.............................. CYCLE    9 ..............................
........................................................................
   1    -30.3146060 -0.303146E+02  0.163E-02    0.52       0.0  T
   2    -30.3146061 -0.975231E-07  0.980E-03    0.52       2.4  T
   3    -30.3146056  0.465930E-06  0.600E-03    0.52       3.9  T
   4    -30.3146062 -0.565740E-06  0.117E-03    0.52      20.2  T
   5    -30.3146062 -0.752156E-08  0.550E-04    0.52      42.8  T
   6    -30.3146062 -0.140652E-08  0.252E-04    0.52      93.4  T
     SCC iter.                  ...        0 min,  0.007 sec
     gradient                   ...        0 min,  0.010 sec
 * total energy  :   -29.8996618 Eh     change       -0.1258485E-04 Eh
   gradient norm :     0.0021462 Eh/α   predicted    -0.7236459E-05 ( -42.50%)
   displ. norm   :     0.1769102 α      lambda       -0.4454848E-04
   maximum displ.:     0.1156823 α      in ANC's #4, #5, #3, ...

........................................................................
.............................. CYCLE   10 ..............................
........................................................................
   1    -30.3139679 -0.303140E+02  0.522E-02    0.52       0.0  T
   2    -30.3139684 -0.546259E-06  0.309E-02    0.52       1.0  T
   3    -30.3139651  0.336117E-05  0.151E-02    0.52       1.6  T
   4    -30.3139689 -0.379861E-05  0.299E-03    0.53       7.9  T
   5    -30.3139689 -0.316102E-07  0.145E-03    0.53      16.2  T
   6    -30.3139689 -0.817944E-08  0.664E-04    0.53      35.5  T
   7    -30.3139689 -0.503334E-08  0.242E-04    0.53      97.6  T
     SCC iter.                  ...        0 min,  0.008 sec
     gradient                   ...        0 min,  0.010 sec
 * total energy  :   -29.8996889 Eh     change       -0.2709286E-04 Eh
   gradient norm :     0.0025313 Eh/α   predicted    -0.2297130E-04 ( -15.21%)
   displ. norm   :     0.0626645 α      lambda       -0.2201505E-04
   maximum displ.:     0.0406755 α      in ANC's #4, #5, #2, ...

........................................................................
.............................. CYCLE   11 ..............................
........................................................................
   1    -30.3141644 -0.303142E+02  0.187E-02    0.53       0.0  T
   2    -30.3141645 -0.951886E-07  0.108E-02    0.53       2.2  T
   3    -30.3141643  0.164597E-06  0.372E-03    0.53       6.3  T
   4    -30.3141645 -0.174563E-06  0.141E-03    0.53      16.7  T
   5    -30.3141645 -0.213808E-07  0.501E-04    0.53      47.0  T
   6    -30.3141645 -0.874589E-09  0.221E-04    0.53     106.9  T
     SCC iter.                  ...        0 min,  0.007 sec
     gradient                   ...        0 min,  0.010 sec
 * total energy  :   -29.8997068 Eh     change       -0.1792830E-04 Eh
   gradient norm :     0.0020872 Eh/α   predicted    -0.1104930E-04 ( -38.37%)
   displ. norm   :     0.1945762 α      lambda       -0.4895718E-04
   maximum displ.:     0.1322571 α      in ANC's #4, #5, #2, ...

........................................................................
.............................. CYCLE   12 ..............................
........................................................................
   1    -30.3135482 -0.303135E+02  0.549E-02    0.53       0.0  T
   2    -30.3135486 -0.417897E-06  0.323E-02    0.53       1.0  T
   3    -30.3135476  0.985817E-06  0.869E-03    0.53       2.7  T
   4    -30.3135487 -0.111398E-05  0.272E-03    0.53       8.7  T
   5    -30.3135488 -0.463758E-07  0.135E-03    0.53      17.4  T
   6    -30.3135488 -0.181636E-07  0.380E-04    0.53      62.1  T
   7    -30.3135488 -0.114551E-08  0.199E-04    0.53     118.6  T
     SCC iter.                  ...        0 min,  0.008 sec
     gradient                   ...        0 min,  0.010 sec
 * total energy  :   -29.8997406 Eh     change       -0.3378148E-04 Eh
   gradient norm :     0.0036220 Eh/α   predicted    -0.2540313E-04 ( -24.80%)
   displ. norm   :     0.1532588 α      lambda       -0.6351848E-04
   maximum displ.:     0.0907414 α      in ANC's #4, #5, #3, ...

........................................................................
.............................. CYCLE   13 ..............................
........................................................................
   1    -30.3140354 -0.303140E+02  0.433E-02    0.53       0.0  T
   2    -30.3140365 -0.103577E-05  0.258E-02    0.52       1.0  T
   3    -30.3140340  0.247508E-05  0.146E-02    0.52       1.6  T
   4    -30.3140370 -0.302855E-05  0.357E-03    0.52       6.6  T
   5    -30.3140372 -0.138431E-06  0.129E-03    0.52      18.3  T
   6    -30.3140372 -0.936852E-08  0.603E-04    0.52      39.1  T
   7    -30.3140372 -0.229664E-08  0.250E-04    0.52      94.4  T
     SCC iter.                  ...        0 min,  0.008 sec
     gradient                   ...        0 min,  0.010 sec
 * total energy  :   -29.8997830 Eh     change       -0.4237699E-04 Eh
   gradient norm :     0.0035611 Eh/α   predicted    -0.3250625E-04 ( -23.29%)
   displ. norm   :     0.2117362 α      lambda       -0.4117334E-04
   maximum displ.:     0.1390676 α      in ANC's #4, #5, #2, ...

........................................................................
.............................. CYCLE   14 ..............................
........................................................................
   1    -30.3128521 -0.303129E+02  0.611E-02    0.52       0.0  T
   2    -30.3128530 -0.893270E-06  0.358E-02    0.52       1.0  T
   3    -30.3128517  0.128481E-05  0.100E-02    0.52       2.4  T
   4    -30.3128530 -0.133743E-05  0.402E-03    0.52       5.9  T
   5    -30.3128532 -0.172788E-06  0.129E-03    0.52      18.3  T
   6    -30.3128532  0.130942E-09  0.677E-04    0.52      34.8  T
   7    -30.3128532 -0.654201E-08  0.223E-04    0.52     105.7  T
     SCC iter.                  ...        0 min,  0.008 sec
     gradient                   ...        0 min,  0.010 sec
 * total energy  :   -29.8997892 Eh     change       -0.6215237E-05 Eh
   gradient norm :     0.0057748 Eh/α   predicted    -0.2150889E-04 ( 246.07%)
   displ. norm   :     0.0504348 α      lambda       -0.8265149E-04
   maximum displ.:     0.0406521 α      in ANC's #3, #7, #4, ...

........................................................................
.............................. CYCLE   15 ..............................
........................................................................
   1    -30.3150643 -0.303151E+02  0.295E-02    0.52       0.0  T
   2    -30.3150654 -0.113337E-05  0.164E-02    0.52       1.4  T
   3    -30.3150650  0.428695E-06  0.870E-03    0.51       2.7  T
   4    -30.3150656 -0.619776E-06  0.340E-03    0.51       6.9  T
   5    -30.3150657 -0.963031E-07  0.150E-03    0.51      15.7  T
   6    -30.3150657 -0.108994E-07  0.569E-04    0.51      41.4  T
   7    -30.3150657 -0.189882E-08  0.210E-04    0.51     112.0  T
     SCC iter.                  ...        0 min,  0.009 sec
     gradient                   ...        0 min,  0.010 sec
 * total energy  :   -29.8998225 Eh     change       -0.3327979E-04 Eh
   gradient norm :     0.0019397 Eh/α   predicted    -0.4142952E-04 (  24.49%)
   displ. norm   :     0.0891575 α      lambda       -0.1245718E-04
   maximum displ.:     0.0600954 α      in ANC's #4, #5, #2, ...

........................................................................
.............................. CYCLE   16 ..............................
........................................................................
   1    -30.3143018 -0.303143E+02  0.278E-02    0.52       0.0  T
   2    -30.3143023 -0.481142E-06  0.162E-02    0.52       1.5  T
   3    -30.3143021  0.215708E-06  0.610E-03    0.52       3.9  T
   4    -30.3143024 -0.293753E-06  0.153E-03    0.52      15.4  T
   5    -30.3143024 -0.163451E-07  0.660E-04    0.52      35.7  T
   6    -30.3143024 -0.185074E-08  0.399E-04    0.52      59.0  T
     SCC iter.                  ...        0 min,  0.007 sec
     gradient                   ...        0 min,  0.010 sec
 * total energy  :   -29.8998330 Eh     change       -0.1046948E-04 Eh
   gradient norm :     0.0017795 Eh/α   predicted    -0.6250800E-05 ( -40.30%)
   displ. norm   :     0.0371307 α      lambda       -0.5732135E-05
   maximum displ.:     0.0225169 α      in ANC's #4, #2, #5, ...

........................................................................
.............................. CYCLE   17 ..............................
........................................................................
   1    -30.3142825 -0.303143E+02  0.125E-02    0.52       0.0  T
   2    -30.3142829 -0.322717E-06  0.724E-03    0.52       3.3  T
   3    -30.3142829  0.195957E-09  0.398E-03    0.52       5.9  T
   4    -30.3142829 -0.679380E-07  0.110E-03    0.52      21.4  T
   5    -30.3142829 -0.125659E-07  0.426E-04    0.52      55.3  T
   6    -30.3142829 -0.175202E-08  0.208E-04    0.52     113.2  T
     SCC iter.                  ...        0 min,  0.007 sec
     gradient                   ...        0 min,  0.010 sec
 * total energy  :   -29.8998394 Eh     change       -0.6422763E-05 Eh
   gradient norm :     0.0013751 Eh/α   predicted    -0.2869097E-05 ( -55.33%)
   displ. norm   :     0.0754516 α      lambda       -0.6818012E-05
   maximum displ.:     0.0451192 α      in ANC's #4, #2, #5, ...

........................................................................
.............................. CYCLE   18 ..............................
........................................................................
   1    -30.3143699 -0.303144E+02  0.207E-02    0.52       0.0  T
   2    -30.3143700 -0.148526E-06  0.122E-02    0.52       1.9  T
   3    -30.3143699  0.163831E-06  0.391E-03    0.52       6.0  T
   4    -30.3143701 -0.183486E-06  0.119E-03    0.52      19.9  T
   5    -30.3143701 -0.179117E-07  0.423E-04    0.52      55.7  T
   6    -30.3143701 -0.989306E-09  0.197E-04    0.52     119.4  T
     SCC iter.                  ...        0 min,  0.007 sec
     gradient                   ...        0 min,  0.010 sec
 * total energy  :   -29.8998470 Eh     change       -0.7661210E-05 Eh
   gradient norm :     0.0015004 Eh/α   predicted    -0.3418852E-05 ( -55.37%)
   displ. norm   :     0.1090491 α      lambda       -0.7880164E-05
   maximum displ.:     0.0629380 α      in ANC's #4, #2, #5, ...

........................................................................
.............................. CYCLE   19 ..............................
........................................................................
   1    -30.3143215 -0.303143E+02  0.292E-02    0.52       0.0  T
   2    -30.3143216 -0.485214E-07  0.175E-02    0.52       1.3  T
   3    -30.3143211  0.443502E-06  0.536E-03    0.52       4.4  T
   4    -30.3143216 -0.490565E-06  0.994E-04    0.52      23.7  T
   5    -30.3143216 -0.362144E-08  0.586E-04    0.52      40.2  T
     SCC iter.                  ...        0 min,  0.006 sec
     gradient                   ...        0 min,  0.010 sec
 * total energy  :   -29.8998554 Eh     change       -0.8380425E-05 Eh
   gradient norm :     0.0015884 Eh/α   predicted    -0.3961359E-05 ( -52.73%)
   displ. norm   :     0.1042379 α      lambda       -0.1116256E-04
   maximum displ.:     0.0599772 α      in ANC's #2, #4, #5, ...

........................................................................
.............................. CYCLE   20 ..............................
........................................................................
   1    -30.3150659 -0.303151E+02  0.309E-02    0.52       0.0  T
   2    -30.3150663 -0.382797E-06  0.185E-02    0.52       1.3  T
   3    -30.3150650  0.128696E-05  0.108E-02    0.52       2.2  T
   4    -30.3150665 -0.153327E-05  0.209E-03    0.52      11.3  T
   5    -30.3150666 -0.500752E-07  0.794E-04    0.52      29.7  T
   6    -30.3150666 -0.353541E-08  0.352E-04    0.52      66.9  T
     SCC iter.                  ...        0 min,  0.007 sec
     gradient                   ...        0 min,  0.010 sec
 * total energy  :   -29.8998607 Eh     change       -0.5267062E-05 Eh
   gradient norm :     0.0014932 Eh/α   predicted    -0.5610253E-05 (   6.52%)
   displ. norm   :     0.2119954 α      lambda       -0.1146145E-04
   maximum displ.:     0.1230167 α      in ANC's #4, #2, #5, ...
 * RMSD in coord.:     0.4105155 α      energy gain  -0.1167678E-01 Eh

generating ANC from model Hessian ...
Using Lindh-Hessian (1995)
 Shifting diagonal of input Hessian by   7.543154747234721E-003
 Lowest  eigenvalues of input Hessian
    0.000000    0.000000    0.000000    0.000000    0.000000    0.000000
    0.010000    0.010844    0.012962    0.015272    0.021481    0.025670
    0.030193    0.034895    0.041911    0.043254    0.053867    0.061301
 Highest eigenvalues
    1.656581    1.758010    1.831593    1.911530    1.953530    2.062201
 

........................................................................
.............................. CYCLE   21 ..............................
........................................................................
   1    -30.3135246 -0.303135E+02  0.602E-02    0.52       0.0  T
   2    -30.3135258 -0.114760E-05  0.356E-02    0.52       1.0  T
   3    -30.3135242  0.151941E-05  0.117E-02    0.52       2.0  T
   4    -30.3135259 -0.163087E-05  0.368E-03    0.52       6.4  T
   5    -30.3135260 -0.159447E-06  0.138E-03    0.52      17.1  T
   6    -30.3135260 -0.658904E-08  0.634E-04    0.52      37.2  T
   7    -30.3135260 -0.267143E-08  0.179E-04    0.52     131.7  T
     SCC iter.                  ...        0 min,  0.009 sec
     gradient                   ...        0 min,  0.010 sec
 * total energy  :   -29.8998432 Eh     change        0.1744547E-04 Eh
   gradient norm :     0.0039949 Eh/α   predicted     0.0000000E+00 (-100.00%)
   displ. norm   :     0.0131840 α      lambda       -0.3545993E-04
   maximum displ.:     0.0060811 α      in ANC's #23, #3, #1, ...

........................................................................
.............................. CYCLE   22 ..............................
........................................................................
   1    -30.3145555 -0.303146E+02  0.148E-02    0.52       0.0  T
   2    -30.3145559 -0.342855E-06  0.817E-03    0.52       2.9  T
   3    -30.3145558  0.551840E-07  0.380E-03    0.52       6.2  T
   4    -30.3145559 -0.618266E-07  0.175E-03    0.52      13.5  T
   5    -30.3145559 -0.369209E-07  0.580E-04    0.52      40.6  T
   6    -30.3145559 -0.972715E-09  0.284E-04    0.52      82.8  T
     SCC iter.                  ...        0 min,  0.007 sec
     gradient                   ...        0 min,  0.010 sec
 * total energy  :   -29.8998640 Eh     change       -0.2074372E-04 Eh
   gradient norm :     0.0009526 Eh/α   predicted    -0.1773282E-04 ( -14.51%)
   displ. norm   :     0.0129127 α      lambda       -0.2486838E-05
   maximum displ.:     0.0089177 α      in ANC's #3, #1, #8, ...

........................................................................
.............................. CYCLE   23 ..............................
........................................................................
   1    -30.3149194 -0.303149E+02  0.864E-03    0.52       0.0  T
   2    -30.3149194 -0.572837E-07  0.493E-03    0.52       4.8  T
   3    -30.3149193  0.851737E-07  0.316E-03    0.52       7.5  T
   4    -30.3149195 -0.115224E-06  0.759E-04    0.52      31.1  T
   5    -30.3149195 -0.459012E-08  0.365E-04    0.52      64.6  T
     SCC iter.                  ...        0 min,  0.006 sec
     gradient                   ...        0 min,  0.010 sec
 * total energy  :   -29.8998654 Eh     change       -0.1443415E-05 Eh
   gradient norm :     0.0004870 Eh/α   predicted    -0.1243086E-05 ( -13.88%)
   displ. norm   :     0.0081922 α      lambda       -0.7202141E-06
   maximum displ.:     0.0054981 α      in ANC's #3, #1, #4, ...

   *** GEOMETRY OPTIMIZATION CONVERGED AFTER 23 ITERATIONS ***

------------------------------------------------------------------------
 total energy gain   :        -0.0116815 Eh       -7.3303 kcal/mol
 total RMSD          :         0.4080590 a0        0.2159 Å
 total power (kW/mol):        -1.3334709 (step)  -57.2019 (real)
------------------------------------------------------------------------

 ANCopt (total)                0 d,  0 h,  0 min,  0.536 sec
 optimizer setup                ...        0 min,  0.001 sec (  0.102%)
 model hessian                  ...        0 min,  0.006 sec (  1.114%)
 ANC generation                 ...        0 min,  0.001 sec (  0.269%)
 coordinate transformation      ...        0 min,  0.000 sec (  0.066%)
 single point calculation       ...        0 min,  0.517 sec ( 96.424%)
 optimization log               ...        0 min,  0.004 sec (  0.785%)
 hessian update                 ...        0 min,  0.000 sec (  0.062%)
 rational function              ...        0 min,  0.005 sec (  0.865%)

================
 final structure:
================
18
 xtb: 6.4.1 (afa7bdf)
C        -3.41028965571503   -0.37034824404180    0.55317232557899
C        -2.08012551267434    0.14944346239267    0.12553742551085
C        -0.85719167405793   -0.39066355163503    0.31530732003430
C         0.22123677566868    0.37529216352110   -0.23286105617089
C         1.59655476640839   -0.02905863285661   -0.13978651315812
N         1.93441468563680   -1.16425576358422    0.50002979995462
N         3.28385901837866   -1.18825221193408    0.36648572496603
C         3.88656113504676   -0.16250380310492   -0.31267713701095
C         2.74858396368541    0.60536995207308   -0.64628799779063
C        -0.24091024825334    1.50682201271732   -0.83821036106631
S        -1.96876181708761    1.65496870830845   -0.75289127501639
H        -3.92015228712524    0.34819789055648    1.19627768283702
H        -3.28081330719595   -1.30166013341780    1.10113547012903
H        -4.05033771362699   -0.55738134710939   -0.31046080012162
H        -0.67800732545440   -1.31746704726098    0.83179543068596
H         3.76633160044742   -1.97397369488485    0.78311272533934
H         2.74056867559744    1.53570359008595   -1.20230572659424
H         0.30847892032109    2.27976565017460   -1.33737303810716
 
 Bond Distances (Angstroems)
 ---------------------------
C1-C2=1.4908         C1-H12=1.0908        C1-H13=1.0883        C1-H14=1.0911        C2-C1=1.4908         C2-C3=1.3503         
C2-S11=1.7466        C3-C2=1.3503         C3-C4=1.4318         C3-H15=1.0760        C4-C3=1.4318         C4-C5=1.4365         
C4-C10=1.3640        C5-C4=1.4365         C5-N6=1.3462         C5-C9=1.4093         N6-C5=1.3462         N6-N7=1.3562         
N7-N6=1.3562         N7-C8=1.3699         N7-H16=1.0118        C8-N7=1.3699         C8-C9=1.4128         C9-C5=1.4093         
C9-C8=1.4128         C9-H17=1.0839        C10-C4=1.3640        C10-S11=1.7363       C10-H18=1.0716       S11-C2=1.7466        
S11-C10=1.7363       H12-C1=1.0908        H13-C1=1.0883        H14-C1=1.0911        H15-C3=1.0760        H16-N7=1.0118        
H17-C9=1.0839        H18-C10=1.0716       
 C  H  Rav=1.0836 sigma=0.0074  Rmin=1.0716  Rmax=1.0911     6
 C  C  Rav=1.4136 sigma=0.0436  Rmin=1.3503  Rmax=1.4908     7
 N  H  Rav=1.0118 sigma=0.0000  Rmin=1.0118  Rmax=1.0118     1
 N  C  Rav=1.3580 sigma=0.0119  Rmin=1.3462  Rmax=1.3699     2
 N  N  Rav=1.3562 sigma=0.0000  Rmin=1.3562  Rmax=1.3562     1
 S  C  Rav=1.7414 sigma=0.0052  Rmin=1.7363  Rmax=1.7466     2
 
 selected bond angles (degree)
 --------------------
H12-C1-C2=110.89               H13-C1-C2=109.67               H13-C1-H12=108.81              H14-C1-C2=110.86               
H14-C1-H12=107.78              H14-C1-H13=108.76              C3-C2-C1=128.93                S11-C2-C1=120.11               
S11-C2-C3=110.96               C4-C3-C2=114.48                H15-C3-C2=124.25               H15-C3-C4=121.27               
C5-C4-C3=123.07                C10-C4-C3=111.01               C10-C4-C5=125.92               N6-C5-C4=120.56                
C9-C5-C4=129.24                C9-C5-N6=110.20                N7-N6-C5=102.58                C8-N7-N6=118.25                
H16-N7-N6=116.59               H16-N7-C8=125.16               C9-C8-N7= 99.77                C8-C9-C5=109.20                
H17-C9-C5=124.38               H17-C9-C8=126.42               S11-C10-C4=112.72              H18-C10-C4=129.15              
H18-C10-S11=118.13             
 
 selected dihedral angles (degree)
 ---------------------------------
C3-C2-C1-H12=121.52           C3-C2-C1-H13=  1.32           C3-C2-C1-H14=241.20           S11-C2-C1-H12=301.34          
S11-C2-C1-H13=181.14          S11-C2-C1-H14= 61.02          C4-C3-C2-C1=179.84            C4-C3-C2-S11=  0.00           
H15-C3-C2-C1=359.82           H15-C3-C2-S11=179.98          C5-C4-C3-C2=180.14            C5-C4-C3-H15=  0.16           
C10-C4-C3-C2=  0.00           C10-C4-C3-H15=180.04          N6-C5-C4-C3=359.02            N6-C5-C4-C10=179.16           
C9-C5-C4-C3=178.81            C9-C5-C4-C10=358.94           N7-N6-C5-C4=179.89            N7-N6-C5-C9=  0.07            
C8-N7-N6-C5=359.94            H16-N7-N6-C5=179.94           C9-C8-N7-N6=  0.00            C9-C8-N7-H16=180.01           
C8-C9-C5-C4=180.13            C8-C9-C5-N6=359.93            H17-C9-C5-C4=  0.10           H17-C9-C5-N6=179.90           
C5-C9-C8-N7=  0.03            H17-C9-C8-N7=180.06           S11-C10-C4-C3=359.96          S11-C10-C4-C5=179.84          
H18-C10-C4-C3=179.98          H18-C10-C4-C5=359.85          
           -------------------------------------------------
          |                Final Singlepoint                |
           -------------------------------------------------

          ...................................................
          :                      SETUP                      :
          :.................................................:
          :  # basis functions                  57          :
          :  # atomic orbitals                  56          :
          :  # shells                           30          :
          :  # electrons                        56          :
          :  max. iterations                   250          :
          :  Hamiltonian                  GFN2-xTB          :
          :  restarted?                      false          :
          :  GBSA solvation                  false          :
          :  PC potential                    false          :
          :  electronic temp.          300.0000000     K    :
          :  accuracy                    1.0000000          :
          :  -> integral cutoff          0.2500000E+02      :
          :  -> integral neglect         0.1000000E-07      :
          :  -> SCF convergence          0.1000000E-05 Eh   :
          :  -> wf. convergence          0.1000000E-03 e    :
          :  Broyden damping             0.4000000          :
          ...................................................

 iter      E             dE          RMSdq      gap      omega  full diag
   1    -30.3149195 -0.303149E+02  0.165E-04    0.52       0.0  T
   2    -30.3149195 -0.265956E-10  0.113E-04    0.52     209.3  T
   3    -30.3149195 -0.606413E-10  0.754E-05    0.52     312.7  T

   *** convergence criteria satisfied after 3 iterations ***

         #    Occupation            Energy/Eh            Energy/eV
      -------------------------------------------------------------
         1        2.0000           -0.5935893             -16.1524
       ...           ...                  ...                  ...
        22        2.0000           -0.2610214              -7.1028
        23        2.0000           -0.2496981              -6.7946
        24        2.0000           -0.2432279              -6.6186
        25        2.0000           -0.1897883              -5.1644
        26        2.0000           -0.1849107              -5.0317
        27        2.0000           -0.1568317              -4.2676
        28        1.9999           -0.1211175              -3.2958 (HOMO)
        29        0.0001           -0.1019673              -2.7747 (LUMO)
        30                         -0.0744465              -2.0258
        31                         -0.0418008              -1.1375
        32                          0.0115433               0.3141
        33                          0.0337519               0.9184
       ...                                ...                  ...
        56                          0.8795879              23.9348
      -------------------------------------------------------------
                  HL-Gap            0.0191502 Eh            0.5211 eV
             Fermi-level           -0.1115424 Eh           -3.0352 eV
 
 localization/xTB-IFF output generation
 averaging CT terms over            1  occ. levels
 averaging CT terms over            1  virt. levels
 dipole moment from electron density (au)
     X       Y       Z   
  -3.7100  -0.5238   0.6817  total (Debye):    9.680
cpu  time for init local    0.00 s
wall time for init local    0.00 s
 doing rotations ...
 initialization of trafo matrix to unity
iteration     50  convergence  0.19080271D-01
iteration    100  convergence  0.59857372D-04

 converged in    121 iterations, threshold :   0.99003917D-06
 doing transformations ...
 lmo centers(Z=2) and atoms on file <lmocent.coord>
 LMO Fii/eV  ncent    charge center   contributions...
    1 sigma -11.61   1.97  -5.21094  -0.20649   0.64278    1C :  0.52    2C :  0.49
    2 sigma -11.46   1.94  -3.93121   1.74979  -0.60805   11S :  0.59    2C :  0.41
    3 sigma -11.25   1.99  -7.21148  -0.92616  -0.03803    1C :  0.51   14H :  0.49
    4 sigma -11.24   1.99  -7.05038   0.20240   1.84052    1C :  0.51   12H :  0.49
    5 sigma -11.22   1.98  -6.27124  -1.85583   1.72458    1C :  0.51   13H :  0.49
    6 sigma -11.21   1.89  -2.16786   3.07876  -1.54778   11S :  0.61   10C :  0.39
    7 sigma -10.78   1.98   4.96018  -2.25015   0.82907    7N :  0.53    6N :  0.47
    8 sigma -10.61   2.00  -0.58227  -0.06168   0.10335    3C :  0.52    4C :  0.48
    9 LP    -10.47   1.14  -4.55598   2.44128  -3.79640   11S :  0.93
   10 LP    -10.47   1.15  -4.13910   4.89220   0.45294   11S :  0.93
   11 sigma -10.39   2.01   0.22797   3.82759  -2.21557   18H :  0.50   10C :  0.50
   12 sigma -10.24   1.99   6.78662  -3.18794   1.19184    7N :  0.53   16H :  0.47
   13 sigma -10.14   2.02  -1.41814  -1.88438   1.23646    3C :  0.50   15H :  0.49
   14 pi     -9.87   2.10  -2.70351   0.08044   0.84191    2C :  0.50    3C :  0.48
   15 pi     -9.87   2.10  -2.79285  -0.44333  -0.06750    2C :  0.50    3C :  0.48
   16 sigma  -9.82   2.02   1.63619   0.37389  -0.36965    4C :  0.54    5C :  0.45
   17 pi     -9.29   2.16  -0.14333   1.51715  -1.44940   10C :  0.51    4C :  0.45
   18 pi     -9.29   2.16  -0.05401   2.03186  -0.55431   10C :  0.51    4C :  0.45
   19 pi     -8.18   1.77   6.41449  -1.83663  -0.10592    7N :  0.70    8C :  0.27
   20 sigma  -8.17   1.99   5.18673   2.37754  -1.95935   17H :  0.55    9C :  0.45
   21 pi     -8.16   1.76   6.49206  -1.37728   0.67654    7N :  0.70    8C :  0.27
   22 pi     -8.10   2.10   3.39338  -1.52247   0.05524    6N :  0.58    5C :  0.37
   23 pi     -8.09   2.10   3.48263  -1.07335   0.81045    6N :  0.58    5C :  0.37
   24 sigma  -7.78   1.98   6.25589   0.50611  -0.96988    9C :  0.55    8C :  0.45
   25 delpi  -7.14   2.36   4.29202   0.33476  -1.16575    9C :  0.51    5C :  0.41
   26 delpi  -6.73   2.45   4.47974   0.78711  -0.39093    9C :  0.52    5C :  0.37    8C :  0.07
   27 LP     -6.26   1.02   2.68867  -3.51540   1.83536    6N :  0.99
   28 LP     -4.49   1.04   9.34618  -0.15255  -0.90298    8C :  0.98
 starting deloc pi regularization ...
 thr    2.20000000000000      # pi deloc LMO           5
 files:
 coordprot.0/xtbscreen.xyz/xtblmoinfo/lmocent.coord
 with protonation site input, xtbdock and
 LMO center info written
 

 SCC (total)                   0 d,  0 h,  0 min,  0.040 sec
 SCC setup                      ...        0 min,  0.000 sec (  0.425%)
 Dispersion                     ...        0 min,  0.000 sec (  0.291%)
 classical contributions        ...        0 min,  0.000 sec (  0.089%)
 integral evaluation            ...        0 min,  0.004 sec ( 11.257%)
 iterations                     ...        0 min,  0.004 sec ( 10.541%)
 molecular gradient             ...        0 min,  0.010 sec ( 24.604%)
 printout                       ...        0 min,  0.021 sec ( 52.670%)

         :::::::::::::::::::::::::::::::::::::::::::::::::::::
         ::                     SUMMARY                     ::
         :::::::::::::::::::::::::::::::::::::::::::::::::::::
         :: total energy             -29.899865435765 Eh    ::
         :: gradient norm              0.000486755396 Eh/a0 ::
         :: HOMO-LUMO gap              0.521104021317 eV    ::
         ::.................................................::
         :: SCC energy               -30.314919466142 Eh    ::
         :: -> isotropic ES            0.122408875437 Eh    ::
         :: -> anisotropic ES          0.003010480644 Eh    ::
         :: -> anisotropic XC          0.017817673365 Eh    ::
         :: -> dispersion             -0.018632895418 Eh    ::
         :: repulsion energy           0.415081665490 Eh    ::
         :: add. restraining           0.000000000000 Eh    ::
         :: total charge              -1.000000000000 e     ::
         :::::::::::::::::::::::::::::::::::::::::::::::::::::

           -------------------------------------------------
          |                Property Printout                |
           -------------------------------------------------

    * Orbital Energies and Occupations

         #    Occupation            Energy/Eh            Energy/eV
      -------------------------------------------------------------
         1        2.0000           -0.5935893             -16.1524
       ...           ...                  ...                  ...
        16        2.0000           -0.3329796              -9.0608
        17        2.0000           -0.3234644              -8.8019
        18        2.0000           -0.3136185              -8.5340
        19        2.0000           -0.3041127              -8.2753
        20        2.0000           -0.2931959              -7.9783
        21        2.0000           -0.2742072              -7.4616
        22        2.0000           -0.2610214              -7.1028
        23        2.0000           -0.2496981              -6.7946
        24        2.0000           -0.2432279              -6.6186
        25        2.0000           -0.1897883              -5.1644
        26        2.0000           -0.1849107              -5.0317
        27        2.0000           -0.1568317              -4.2676
        28        1.9999           -0.1211175              -3.2958 (HOMO)
        29        0.0001           -0.1019673              -2.7747 (LUMO)
        30                         -0.0744465              -2.0258
        31                         -0.0418008              -1.1375
        32                          0.0115433               0.3141
        33                          0.0337519               0.9184
        34                          0.0884366               2.4065
        35                          0.1216059               3.3091
        36                          0.1502209               4.0877
        37                          0.1640878               4.4651
        38                          0.2160161               5.8781
        39                          0.2335268               6.3546
       ...                                ...                  ...
        56                          0.8795879              23.9348
      -------------------------------------------------------------
                  HL-Gap            0.0191502 Eh            0.5211 eV
             Fermi-level           -0.1115424 Eh           -3.0352 eV

     #   Z          covCN         q      C6AA      α(0)
     1   6 C        3.774    -0.092    22.287     6.727
     2   6 C        2.972     0.020    27.563     8.612
     3   6 C        3.121    -0.054    29.151     8.843
     4   6 C        3.128    -0.005    27.952     8.656
     5   6 C        3.103     0.036    27.076     8.527
     6   7 N        1.949    -0.354    30.027     8.126
     7   7 N        3.068    -0.032    21.854     6.943
     8   6 C        1.959    -0.309    40.624    10.293
     9   6 C        3.073    -0.086    30.078     8.992
    10   6 C        2.943    -0.032    28.795     8.801
    11  16 S        2.295    -0.200   149.578    20.584
    12   1 H        0.924     0.030     2.592     2.518
    13   1 H        0.925     0.029     2.600     2.521
    14   1 H        0.924     0.029     2.595     2.519
    15   1 H        0.926     0.028     2.609     2.526
    16   1 H        0.860     0.072     2.073     2.255
    17   1 H        0.925    -0.090     5.232     3.577
    18   1 H        0.926     0.010     2.892     2.659

 Mol. C6AA /au·bohr⁶  :       5966.722126
 Mol. C8AA /au·bohr⁸  :     164634.357180
 Mol. α(0) /au        :        123.678628


Wiberg/Mayer (AO) data.
largest (>0.10) Wiberg bond orders for each atom

 ---------------------------------------------------------------------------
     #   Z sym  total        # sym  WBO       # sym  WBO       # sym  WBO
 ---------------------------------------------------------------------------
     1   6 C    3.998 --     2 C    1.028    13 H    0.983    12 H    0.977
                            14 H    0.976
     2   6 C    3.940 --     3 C    1.662    11 S    1.110     1 C    1.028
                            10 C    0.106
     3   6 C    3.986 --     2 C    1.662     4 C    1.181    15 H    0.962
     4   6 C    3.977 --    10 C    1.550     3 C    1.181     5 C    1.099
     5   6 C    3.958 --     6 N    1.361     9 C    1.325     4 C    1.099
     6   7 N    2.912 --     5 C    1.361     7 N    1.160     8 C    0.186
                             9 C    0.122
     7   7 N    3.547 --     8 C    1.267     6 N    1.160    16 H    0.964
     8   6 C    2.926 --     9 C    1.437     7 N    1.267     6 N    0.186
     9   6 C    3.948 --     8 C    1.437     5 C    1.325    17 H    0.967
                             6 N    0.122
    10   6 C    3.907 --     4 C    1.550    11 S    1.113    18 H    0.971
                             2 C    0.106
    11  16 S    2.497 --    10 C    1.113     2 C    1.110
    12   1 H    0.999 --     1 C    0.977
    13   1 H    0.999 --     1 C    0.983
    14   1 H    0.999 --     1 C    0.976
    15   1 H    0.999 --     3 C    0.962
    16   1 H    0.994 --     7 N    0.964
    17   1 H    0.992 --     9 C    0.967
    18   1 H    1.000 --    10 C    0.971
 ---------------------------------------------------------------------------

Topologies differ in total number of bonds
Writing topology from bond orders to xtbtopo.mol

molecular dipole:
                 x           y           z       tot (Debye)
 q only:       -3.344      -0.411       0.579
   full:       -3.710      -0.524       0.682       9.679
molecular quadrupole (traceless):
                xx          xy          yy          xz          yz          zz
 q only:      -23.017       4.059       9.692       1.630       2.803      13.325
  q+dip:      -31.145       5.007      14.534       2.260       1.333      16.610
   full:      -31.931       5.442      14.208       2.290       2.566      17.723

           -------------------------------------------------
          |                Geometry Summary                 |
           -------------------------------------------------

      molecular mass/u    :      163.2196663
   center of mass at/Å    :        0.1666551       0.2410923      -0.1535106
  moments of inertia/u·Å² :        0.1790138E+03   0.9332179E+03   0.1109073E+04
rotational constants/cm⁻¹ :        0.9416948E-01   0.1806398E-01   0.1519975E-01

 * 17 selected distances

     #   Z          #   Z                                           value/Å
     2   6 C        3   6 C                                       1.3502946
     3   6 C        4   6 C                                       1.4318466
     4   6 C        5   6 C                                       1.4365452
     5   6 C        6   7 N                                       1.3461749
     6   7 N        7   7 N                                       1.3562484
     7   7 N        8   6 C                                       1.3699167
     5   6 C        9   6 C                                       1.4093313
     4   6 C       10   6 C                                       1.3639602
     2   6 C       11  16 S                                       1.7466096 (max)
    10   6 C       11  16 S                                       1.7362885
     1   6 C       12   1 H                                       1.0908038
     1   6 C       13   1 H                                       1.0882874
     1   6 C       14   1 H                                       1.0911027
     3   6 C       15   1 H                                       1.0760259
     7   7 N       16   1 H                                       1.0117886 (min)
     9   6 C       17   1 H                                       1.0838545
    10   6 C       18   1 H                                       1.0716500

 * 6 distinct bonds (by element types)

   Z      Z             #   av. dist./Å        max./Å        min./Å
   1 H    6 C           6     1.0836207     1.0911027     1.0716500
   6 C    6 C           5     1.3983956     1.4365452     1.3502946
   1 H    7 N           1     1.0117886     1.0117886     1.0117886
   6 C    7 N           2     1.3580458     1.3699167     1.3461749
   7 N    7 N           1     1.3562484     1.3562484     1.3562484
   6 C   16 S           2     1.7414491     1.7466096     1.7362885


optimized geometry written to: xtbopt.xyz


           -------------------------------------------------
          | TOTAL ENERGY              -29.899865435765 Eh   |
          | GRADIENT NORM               0.000486755396 Eh/α |
          | HOMO-LUMO GAP               0.521104021317 eV   |
           -------------------------------------------------

------------------------------------------------------------------------
 * finished run on 2022/11/02 at 18:13:39.665     
------------------------------------------------------------------------
 total:
 * wall-time:     0 d,  0 h,  0 min,  0.705 sec
 *  cpu-time:     0 d,  0 h,  0 min,  0.666 sec
 * ratio c/w:     0.944 speedup
 SCF:
 * wall-time:     0 d,  0 h,  0 min,  0.067 sec
 *  cpu-time:     0 d,  0 h,  0 min,  0.059 sec
 * ratio c/w:     0.884 speedup
 ANC optimizer:
 * wall-time:     0 d,  0 h,  0 min,  0.579 sec
 *  cpu-time:     0 d,  0 h,  0 min,  0.573 sec
 * ratio c/w:     0.990 speedup

