18
 energy: -29.899865435765 gnorm: 0.000486755396 xtb: 6.4.1 (afa7bdf)
C        -3.41028965571503   -0.37034824404180    0.55317232557899
C        -2.08012551267434    0.14944346239267    0.12553742551085
C        -0.85719167405793   -0.39066355163503    0.31530732003430
C         0.22123677566868    0.37529216352110   -0.23286105617089
C         1.59655476640839   -0.02905863285661   -0.13978651315812
N         1.93441468563680   -1.16425576358422    0.50002979995462
N         3.28385901837866   -1.18825221193408    0.36648572496603
C         3.88656113504676   -0.16250380310492   -0.31267713701095
C         2.74858396368541    0.60536995207308   -0.64628799779063
C        -0.24091024825334    1.50682201271732   -0.83821036106631
S        -1.96876181708761    1.65496870830845   -0.75289127501639
H        -3.92015228712524    0.34819789055648    1.19627768283702
H        -3.28081330719595   -1.30166013341780    1.10113547012903
H        -4.05033771362699   -0.55738134710939   -0.31046080012162
H        -0.67800732545440   -1.31746704726098    0.83179543068596
H         3.76633160044742   -1.97397369488485    0.78311272533934
H         2.74056867559744    1.53570359008595   -1.20230572659424
H         0.30847892032109    2.27976565017460   -1.33737303810716
