      -----------------------------------------------------------      
     |                   =====================                   |     
     |                           x T B                           |     
     |                   =====================                   |     
     |                         S. Grimme                         |     
     |          Mulliken Center for Theoretical Chemistry        |     
     |                    University of Bonn                     |     
      -----------------------------------------------------------      

   * xtb version 6.4.1 (afa7bdf) compiled by 'ehlert@majestix' on 2021-06-10

   xtb is free software: you can redistribute it and/or modify it under
   the terms of the GNU Lesser General Public License as published by
   the Free Software Foundation, either version 3 of the License, or
   (at your option) any later version.
   
   xtb is distributed in the hope that it will be useful,
   but WITHOUT ANY WARRANTY; without even the implied warranty of
   MERCHANTABILITY or FITNESS FOR A PARTICULAR PURPOSE.  See the
   GNU Lesser General Public License for more details.
   
   Cite this work as:
   * C. Bannwarth, E. Caldeweyher, S. Ehlert, A. Hansen, P. Pracht,
     J. Seibert, S. Spicher, S. Grimme, WIREs Comput. Mol. Sci., 2020, 11,
     e01493. DOI: 10.1002/wcms.1493
   
   for GFN2-xTB:
   * C. Bannwarth, S. Ehlert and S. Grimme., J. Chem. Theory Comput., 2019,
     15, 1652-1671. DOI: 10.1021/acs.jctc.8b01176
   for GFN1-xTB:
   * S. Grimme, C. Bannwarth, P. Shushkov, J. Chem. Theory Comput., 2017,
     13, 1989-2009. DOI: 10.1021/acs.jctc.7b00118
   for GFN0-xTB:
   * P. Pracht, E. Caldeweyher, S. Ehlert, S. Grimme, ChemRxiv, 2019, preprint.
     DOI: 10.26434/chemrxiv.8326202.v1
   for GFN-FF:
   * S. Spicher and S. Grimme, Angew. Chem. Int. Ed., 2020, 59, 15665-15673.
     DOI: 10.1002/anie.202004239
   
   for DFT-D4:
   * E. Caldeweyher, C. Bannwarth and S. Grimme, J. Chem. Phys., 2017,
     147, 034112. DOI: 10.1063/1.4993215
   * E. Caldeweyher, S. Ehlert, A. Hansen, H. Neugebauer, S. Spicher,
     C. Bannwarth and S. Grimme, J. Chem. Phys., 2019, 150, 154122.
     DOI: 10.1063/1.5090222
   * E. Caldeweyher, J.-M. Mewes, S. Ehlert and S. Grimme, Phys. Chem. Chem. Phys.
     2020, 22, 8499-8512. DOI: 10.1039/D0CP00502A
   
   for sTDA-xTB:
   * S. Grimme and C. Bannwarth, J. Chem. Phys., 2016, 145, 054103.
     DOI: 10.1063/1.4959605
   
   in the mass-spec context:
   * V. Asgeirsson, C. Bauer and S. Grimme, Chem. Sci., 2017, 8, 4879.
     DOI: 10.1039/c7sc00601b
   * J. Koopman and S. Grimme, ACS Omega 2019, 4, 12, 15120-15133.
     DOI: 10.1021/acsomega.9b02011
   
   for metadynamics refer to:
   * S. Grimme, J. Chem. Theory Comput., 2019, 155, 2847-2862
     DOI: 10.1021/acs.jctc.9b00143
   
   for SPH calculations refer to:
   * S. Spicher and S. Grimme, J. Chem. Theory Comput., 2021, 17, 1701-1714
     DOI: 10.1021/acs.jctc.0c01306
   
   with help from (in alphabetical order)
   P. Atkinson, C. Bannwarth, F. Bohle, G. Brandenburg, E. Caldeweyher
   M. Checinski, S. Dohm, S. Ehlert, S. Ehrlich, I. Gerasimov, J. Koopman
   C. Lavigne, S. Lehtola, F. März, M. Müller, F. Musil, H. Neugebauer
   J. Pisarek, C. Plett, P. Pracht, J. Seibert, P. Shushkov, S. Spicher
   M. Stahn, M. Steiner, T. Strunk, J. Stückrath, T. Rose, and J. Unsleber
   
 * started run on 2022/11/02 at 18:13:42.327     

           -------------------------------------------------
          |                Calculation Setup                |
           -------------------------------------------------

          program call               : /lustre/hpc/kemi/borup/pKalculator/dep/xtb-6.4.1/bin/xtb --gfn 2 /lustre/hpc/kemi/borup/pKalculator/calc/test#-1=8/conf04/test#-1=8_conf04_gfn2.xyz --opt --lmo --chrg -1 --uhf 0
          hostname                   : fend01.cluster
          coordinate file            : /lustre/hpc/kemi/borup/pKalculator/calc/test#-1=8/conf04/test#-1=8_conf04_gfn2.xyz
          omp threads                :                     1
          number of atoms            :                    18
          number of electrons        :                    56
          charge                     :                    -1
          spin                       :                   0.0
          first test random number   :      0.86294476797353

   ID    Z sym.   atoms
    1    6 C      1-5, 8-10
    2    7 N      6, 7
    3   16 S      11
    4    1 H      12-18

           -------------------------------------------------
          |                 G F N 2 - x T B                 |
           -------------------------------------------------

        Reference                      10.1021/acs.jctc.8b01176
      * Hamiltonian:
        H0-scaling (s, p, d)           1.850000    2.230000    2.230000
        zeta-weighting                 0.500000
      * Dispersion:
        s8                             2.700000
        a1                             0.520000
        a2                             5.000000
        s9                             5.000000
      * Repulsion:
        kExp                           1.500000    1.000000
        rExp                           1.000000
      * Coulomb:
        alpha                          2.000000
        third order                    shell-resolved
        anisotropic                    true
        a3                             3.000000
        a5                             4.000000
        cn-shift                       1.200000
        cn-exp                         4.000000
        max-rad                        5.000000


          ...................................................
          :                      SETUP                      :
          :.................................................:
          :  # basis functions                  57          :
          :  # atomic orbitals                  56          :
          :  # shells                           30          :
          :  # electrons                        56          :
          :  max. iterations                   250          :
          :  Hamiltonian                  GFN2-xTB          :
          :  restarted?                      false          :
          :  GBSA solvation                  false          :
          :  PC potential                    false          :
          :  electronic temp.          300.0000000     K    :
          :  accuracy                    1.0000000          :
          :  -> integral cutoff          0.2500000E+02      :
          :  -> integral neglect         0.1000000E-07      :
          :  -> SCF convergence          0.1000000E-05 Eh   :
          :  -> wf. convergence          0.1000000E-03 e    :
          :  Broyden damping             0.4000000          :
          ...................................................

 iter      E             dE          RMSdq      gap      omega  full diag
   1    -30.2492583 -0.302493E+02  0.394E+00    2.51       0.0  T
   2    -30.3192965 -0.700382E-01  0.267E+00    0.83       1.0  T
   3    -30.3313219 -0.120254E-01  0.143E+00    0.82       1.0  T
   4    -30.3004004  0.309215E-01  0.162E+00    0.40       1.0  T
   5    -30.3404191 -0.400186E-01  0.479E-01    0.68       1.0  T
   6    -30.3443668 -0.394777E-02  0.151E-01    0.55       1.0  T
   7    -30.3445410 -0.174138E-03  0.786E-02    0.45       1.0  T
   8    -30.3445603 -0.193018E-04  0.414E-02    0.43       1.0  T
   9    -30.3445689 -0.860019E-05  0.176E-02    0.44       1.3  T
  10    -30.3445706 -0.167326E-05  0.949E-03    0.44       2.5  T
  11    -30.3445706 -0.711325E-07  0.409E-03    0.44       5.8  T
  12    -30.3445708 -0.163783E-06  0.146E-03    0.44      16.2  T
  13    -30.3445708 -0.146514E-07  0.741E-04    0.44      31.8  T
  14    -30.3445708 -0.207173E-08  0.188E-04    0.44     125.1  T

   *** convergence criteria satisfied after 14 iterations ***

         #    Occupation            Energy/Eh            Energy/eV
      -------------------------------------------------------------
         1        2.0000           -0.5608639             -15.2619
       ...           ...                  ...                  ...
        22        2.0000           -0.2617302              -7.1220
        23        2.0000           -0.2593026              -7.0560
        24        2.0000           -0.2530590              -6.8861
        25        2.0000           -0.2436195              -6.6292
        26        2.0000           -0.2070839              -5.6350
        27        2.0000           -0.1946093              -5.2956
        28        1.9996           -0.1082544              -2.9458 (HOMO)
        29        0.0004           -0.0921352              -2.5071 (LUMO)
        30                         -0.0496806              -1.3519
        31                         -0.0182616              -0.4969
        32                          0.0109462               0.2979
        33                          0.0626568               1.7050
       ...                                ...                  ...
        56                          0.8571906              23.3253
      -------------------------------------------------------------
                  HL-Gap            0.0161191 Eh            0.4386 eV
             Fermi-level           -0.1001948 Eh           -2.7264 eV
 
 localization/xTB-IFF output generation
 averaging CT terms over            1  occ. levels
 averaging CT terms over            1  virt. levels
 dipole moment from electron density (au)
     X       Y       Z   
   3.7620   1.7550  -1.3598  total (Debye):   11.103
cpu  time for init local    0.00 s
wall time for init local    0.01 s
 doing rotations ...
 initialization of trafo matrix to unity

 converged in     39 iterations, threshold :   0.98304868D-06
 doing transformations ...
 lmo centers(Z=2) and atoms on file <lmocent.coord>
 LMO Fii/eV  ncent    charge center   contributions...
    1 sigma -13.61   1.95   5.34713   0.08756   1.09131    7N :  0.56    6N :  0.44
    2 sigma -13.07   1.92   5.99919   1.39863  -0.33739    7N :  0.58    8C :  0.43
    3 sigma -12.81   1.97   7.36125   0.54406   0.95313    7N :  0.56   15H :  0.44
    4 sigma -11.46   2.01   6.33516   3.00676  -2.16254   16H :  0.51    8C :  0.49
    5 sigma -10.76   2.00   2.51657   1.08826  -0.66101    9C :  0.52    5C :  0.48
    6 sigma -10.38   2.01   2.11054   2.54733  -2.44765   17H :  0.50    9C :  0.50
    7 pi    -10.05   2.16   4.20582   1.63301  -1.76232    9C :  0.48    8C :  0.48
    8 pi    -10.04   2.16   4.07699   2.39789  -1.10958    9C :  0.48    8C :  0.48
    9 sigma -10.02   2.01   1.01528  -0.24091   0.62443    5C :  0.54    4C :  0.46
   10 pi    -10.01   2.12   3.47915  -0.51872   0.71832    6N :  0.55    5C :  0.42
   11 pi     -9.99   2.12   3.36747   0.18586   1.30789    6N :  0.55    5C :  0.41
   12 pi     -9.73   1.53   5.87427   0.75043   0.40354    7N :  0.80    8C :  0.09
   13 sigma  -9.55   1.90  -2.62327  -2.55922   3.08858   11S :  0.60   10C :  0.40
   14 sigma  -9.40   1.91  -4.56162  -2.07628   1.71164   11S :  0.61    2C :  0.39
   15 sigma  -9.28   1.99  -1.31819  -0.38734   0.08642    4C :  0.52    3C :  0.48
   16 sigma  -9.28   2.00  -3.63574  -0.65844  -0.23174    2C :  0.51    3C :  0.49
   17 sigma  -9.07   2.00  -0.07847  -2.56455   3.90916   18H :  0.52   10C :  0.48
   18 LP     -8.73   1.10  -5.29638  -1.30040   5.04752   11S :  0.95
   19 LP     -8.70   1.10  -4.42368  -5.51369   2.34620   11S :  0.95
   20 sigma  -8.65   2.01  -2.39786   0.62944  -1.83081   14H :  0.53    3C :  0.47
   21 sigma  -8.44   2.00  -7.18675  -0.17104  -2.11136   12H :  0.53    1C :  0.47
   22 sigma  -8.38   1.98  -8.20376  -1.48053  -0.39218   13H :  0.53    1C :  0.47
   23 LP     -8.14   1.03   4.59392  -1.68817   3.04804    6N :  0.99
   24 pi     -7.95   2.13  -0.73016  -1.00055   2.23095   10C :  0.52    4C :  0.45
   25 pi     -7.93   2.10  -0.56943  -1.87504   1.68642   10C :  0.52    4C :  0.45
   26 pi     -7.25   2.01  -6.09676  -0.58380  -0.10740    1C :  0.56    2C :  0.43
   27 pi     -7.24   2.01  -5.91619  -1.46982  -0.67391    1C :  0.56    2C :  0.43
   28 delpi  -4.93   2.26  -2.52906  -0.45911  -0.11841    3C :  0.64    2C :  0.14    4C :  0.12
 starting deloc pi regularization ...
 thr    2.20000000000000      # pi deloc LMO           6
 files:
 coordprot.0/xtbscreen.xyz/xtblmoinfo/lmocent.coord
 with protonation site input, xtbdock and
 LMO center info written
 

 SCC (total)                   0 d,  0 h,  0 min,  0.052 sec
 SCC setup                      ...        0 min,  0.000 sec (  0.691%)
 Dispersion                     ...        0 min,  0.000 sec (  0.492%)
 classical contributions        ...        0 min,  0.000 sec (  0.132%)
 integral evaluation            ...        0 min,  0.005 sec (  9.113%)
 iterations                     ...        0 min,  0.017 sec ( 32.286%)
 molecular gradient             ...        0 min,  0.010 sec ( 18.569%)
 printout                       ...        0 min,  0.020 sec ( 38.609%)

         :::::::::::::::::::::::::::::::::::::::::::::::::::::
         ::                     SUMMARY                     ::
         :::::::::::::::::::::::::::::::::::::::::::::::::::::
         :: total energy             -29.919308854992 Eh    ::
         :: gradient norm              0.066798050309 Eh/a0 ::
         :: HOMO-LUMO gap              0.438623692515 eV    ::
         ::.................................................::
         :: SCC energy               -30.344570812313 Eh    ::
         :: -> isotropic ES            0.109743683957 Eh    ::
         :: -> anisotropic ES          0.014992503874 Eh    ::
         :: -> anisotropic XC          0.019393774952 Eh    ::
         :: -> dispersion             -0.018910328937 Eh    ::
         :: repulsion energy           0.425297590337 Eh    ::
         :: add. restraining           0.000000000000 Eh    ::
         :: total charge              -1.000000000000 e     ::
         :::::::::::::::::::::::::::::::::::::::::::::::::::::

      ----------------------------------------------------------- 
     |                   =====================                   |
     |                        A N C O P T                        |
     |                   =====================                   |
     |               Approximate Normal Coordinate               |
     |                Rational Function Optimizer                |
      ----------------------------------------------------------- 

          ...................................................
          :                      SETUP                      :
          :.................................................:
          :   optimization level            normal          :
          :   max. optcycles                   200          :
          :   ANC micro-cycles                  20          :
          :   degrees of freedom                48          :
          :.................................................:
          :   RF solver                   davidson          :
          :   write xtbopt.log                true          :
          :   linear?                        false          :
          :   energy convergence         0.5000000E-05 Eh   :
          :   grad. convergence          0.1000000E-02 Eh/α :
          :   maximium RF displ.         1.0000000          :
          :   Hlow (freq-cutoff)         0.1000000E-01      :
          :   Hmax (freq-cutoff)         5.0000000          :
          :   S6 in model hess.         20.0000000          :
          ...................................................

generating ANC from model Hessian ...
Using Lindh-Hessian (1995)
 Shifting diagonal of input Hessian by   8.238525055103292E-003
 Lowest  eigenvalues of input Hessian
    0.000000    0.000000    0.000000    0.000000    0.000000    0.000000
    0.010000    0.011478    0.012792    0.016505    0.018954    0.023605
    0.032347    0.035595    0.041608    0.046667    0.048230    0.056985
 Highest eigenvalues
    1.682399    1.870695    1.883936    1.933764    1.981654    2.054901
 

........................................................................
.............................. CYCLE    1 ..............................
........................................................................
   1    -30.3445708 -0.303446E+02  0.880E-05    0.44       0.0  T
   2    -30.3445708 -0.247553E-10  0.547E-05    0.44     430.6  T
   3    -30.3445708  0.994405E-11  0.514E-05    0.44     458.3  T
     SCC iter.                  ...        0 min,  0.004 sec
     gradient                   ...        0 min,  0.009 sec
 * total energy  :   -29.9193089 Eh     change       -0.1633005E-09 Eh
   gradient norm :     0.0667998 Eh/α   predicted     0.0000000E+00 (-100.00%)
   displ. norm   :     0.1822214 α      lambda       -0.6530418E-02
   maximum displ.:     0.0849788 α      in ANC's #12, #10, #17, ...

........................................................................
.............................. CYCLE    2 ..............................
........................................................................
   1    -30.3622013 -0.303622E+02  0.260E-01    0.52       0.0  T
   2    -30.3620436  0.157729E-03  0.191E-01    0.55       1.0  T
   3    -30.3619466  0.969906E-04  0.185E-01    0.53       1.0  T
   4    -30.3623334 -0.386848E-03  0.619E-02    0.55       1.0  T
   5    -30.3623922 -0.587277E-04  0.802E-03    0.54       2.9  T
   6    -30.3623925 -0.359212E-06  0.393E-03    0.54       6.0  T
   7    -30.3623925  0.535458E-09  0.184E-03    0.54      12.8  T
   8    -30.3623926 -0.409924E-07  0.676E-04    0.54      34.8  T
   9    -30.3623926 -0.844139E-09  0.330E-04    0.54      71.5  T
     SCC iter.                  ...        0 min,  0.010 sec
     gradient                   ...        0 min,  0.009 sec
 * total energy  :   -29.9238822 Eh     change       -0.4573308E-02 Eh
   gradient norm :     0.0291252 Eh/α   predicted    -0.3373630E-02 ( -26.23%)
   displ. norm   :     0.1510293 α      lambda       -0.2006468E-02
   maximum displ.:     0.0782301 α      in ANC's #12, #3, #17, ...

........................................................................
.............................. CYCLE    3 ..............................
........................................................................
   1    -30.3712390 -0.303712E+02  0.199E-01    0.58       0.0  T
   2    -30.3711741  0.649129E-04  0.137E-01    0.60       1.0  T
   3    -30.3710608  0.113273E-03  0.143E-01    0.59       1.0  T
   4    -30.3713001 -0.239249E-03  0.473E-02    0.60       1.0  T
   5    -30.3713346 -0.344661E-04  0.623E-03    0.60       3.8  T
   6    -30.3713347 -0.133707E-06  0.341E-03    0.60       6.9  T
   7    -30.3713347 -0.369966E-07  0.169E-03    0.60      13.9  T
   8    -30.3713348 -0.269333E-07  0.724E-04    0.60      32.6  T
   9    -30.3713348 -0.939959E-09  0.332E-04    0.60      71.1  T
     SCC iter.                  ...        0 min,  0.010 sec
     gradient                   ...        0 min,  0.010 sec
 * total energy  :   -29.9249663 Eh     change       -0.1084162E-02 Eh
   gradient norm :     0.0087336 Eh/α   predicted    -0.1026116E-02 (  -5.35%)
   displ. norm   :     0.0642337 α      lambda       -0.1524675E-03
   maximum displ.:     0.0549298 α      in ANC's #3, #8, #12, ...

........................................................................
.............................. CYCLE    4 ..............................
........................................................................
   1    -30.3707225 -0.303707E+02  0.458E-02    0.59       0.0  T
   2    -30.3707228 -0.268235E-06  0.278E-02    0.60       1.0  T
   3    -30.3707108  0.119965E-04  0.280E-02    0.60       1.0  T
   4    -30.3707234 -0.126529E-04  0.998E-03    0.59       2.4  T
   5    -30.3707249 -0.152345E-05  0.264E-03    0.60       8.9  T
   6    -30.3707250 -0.530378E-07  0.104E-03    0.60      22.6  T
   7    -30.3707250 -0.732569E-08  0.404E-04    0.60      58.3  T
   8    -30.3707250 -0.778268E-09  0.217E-04    0.60     108.7  T
     SCC iter.                  ...        0 min,  0.009 sec
     gradient                   ...        0 min,  0.010 sec
 * total energy  :   -29.9250823 Eh     change       -0.1159525E-03 Eh
   gradient norm :     0.0050729 Eh/α   predicted    -0.7654668E-04 ( -33.98%)
   displ. norm   :     0.0966417 α      lambda       -0.1169959E-03
   maximum displ.:     0.0873981 α      in ANC's #3, #8, #2, ...

........................................................................
.............................. CYCLE    5 ..............................
........................................................................
   1    -30.3695450 -0.303695E+02  0.517E-02    0.59       0.0  T
   2    -30.3695362  0.876286E-05  0.411E-02    0.59       1.0  T
   3    -30.3695340  0.229051E-05  0.338E-02    0.59       1.0  T
   4    -30.3695508 -0.168741E-04  0.803E-03    0.59       2.9  T
   5    -30.3695516 -0.756352E-06  0.327E-03    0.59       7.2  T
   6    -30.3695517 -0.839664E-07  0.111E-03    0.59      21.3  T
   7    -30.3695517 -0.690047E-08  0.411E-04    0.59      57.3  T
   8    -30.3695517 -0.139375E-08  0.208E-04    0.59     113.3  T
     SCC iter.                  ...        0 min,  0.010 sec
     gradient                   ...        0 min,  0.010 sec
 * total energy  :   -29.9251480 Eh     change       -0.6567727E-04 Eh
   gradient norm :     0.0018328 Eh/α   predicted    -0.5904525E-04 ( -10.10%)
   displ. norm   :     0.0466647 α      lambda       -0.1114303E-04
   maximum displ.:     0.0411727 α      in ANC's #3, #2, #1, ...

........................................................................
.............................. CYCLE    6 ..............................
........................................................................
   1    -30.3696225 -0.303696E+02  0.190E-02    0.59       0.0  T
   2    -30.3696204  0.206227E-05  0.163E-02    0.58       1.4  T
   3    -30.3696216 -0.115745E-05  0.125E-02    0.59       1.9  T
   4    -30.3696235 -0.188421E-05  0.251E-03    0.58       9.4  T
   5    -30.3696236 -0.861893E-07  0.103E-03    0.58      22.9  T
   6    -30.3696236 -0.709186E-08  0.339E-04    0.58      69.5  T
   7    -30.3696236 -0.118198E-08  0.947E-05    0.58     248.9  T
     SCC iter.                  ...        0 min,  0.008 sec
     gradient                   ...        0 min,  0.010 sec
 * total energy  :   -29.9251595 Eh     change       -0.1152777E-04 Eh
   gradient norm :     0.0012535 Eh/α   predicted    -0.5575978E-05 ( -51.63%)
   displ. norm   :     0.0392762 α      lambda       -0.7252020E-05
   maximum displ.:     0.0269926 α      in ANC's #3, #2, #1, ...

........................................................................
.............................. CYCLE    7 ..............................
........................................................................
   1    -30.3699687 -0.303700E+02  0.201E-02    0.59       0.0  T
   2    -30.3699688 -0.110270E-06  0.117E-02    0.59       2.0  T
   3    -30.3699663  0.252396E-05  0.129E-02    0.59       1.8  T
   4    -30.3699690 -0.268076E-05  0.362E-03    0.59       6.5  T
   5    -30.3699692 -0.209351E-06  0.739E-04    0.59      31.9  T
   6    -30.3699692 -0.121587E-08  0.363E-04    0.59      64.9  T
     SCC iter.                  ...        0 min,  0.007 sec
     gradient                   ...        0 min,  0.010 sec
 * total energy  :   -29.9251667 Eh     change       -0.7239821E-05 Eh
   gradient norm :     0.0008209 Eh/α   predicted    -0.3629599E-05 ( -49.87%)
   displ. norm   :     0.0422452 α      lambda       -0.3544326E-05
   maximum displ.:     0.0258132 α      in ANC's #3, #2, #1, ...

........................................................................
.............................. CYCLE    8 ..............................
........................................................................
   1    -30.3699313 -0.303699E+02  0.212E-02    0.59       0.0  T
   2    -30.3699313  0.172391E-07  0.125E-02    0.59       1.9  T
   3    -30.3699280  0.331632E-05  0.139E-02    0.59       1.7  T
   4    -30.3699315 -0.350985E-05  0.282E-03    0.59       8.4  T
   5    -30.3699316 -0.119682E-06  0.795E-04    0.59      29.7  T
   6    -30.3699316 -0.227568E-08  0.371E-04    0.59      63.5  T
     SCC iter.                  ...        0 min,  0.007 sec
     gradient                   ...        0 min,  0.010 sec
 * total energy  :   -29.9251708 Eh     change       -0.4095519E-05 Eh
   gradient norm :     0.0005738 Eh/α   predicted    -0.1772602E-05 ( -56.72%)
   displ. norm   :     0.0446109 α      lambda       -0.2883666E-05
   maximum displ.:     0.0288935 α      in ANC's #2, #1, #3, ...

   *** GEOMETRY OPTIMIZATION CONVERGED AFTER 8 ITERATIONS ***

------------------------------------------------------------------------
 total energy gain   :        -0.0058620 Eh       -3.6784 kcal/mol
 total RMSD          :         0.1179721 a0        0.0624 Å
 total power (kW/mol):        -1.9238226 (step)  -81.1355 (real)
------------------------------------------------------------------------

 ANCopt (total)                0 d,  0 h,  0 min,  0.190 sec
 optimizer setup                ...        0 min,  0.001 sec (  0.275%)
 model hessian                  ...        0 min,  0.003 sec (  1.403%)
 ANC generation                 ...        0 min,  0.001 sec (  0.391%)
 coordinate transformation      ...        0 min,  0.000 sec (  0.060%)
 single point calculation       ...        0 min,  0.181 sec ( 95.180%)
 optimization log               ...        0 min,  0.003 sec (  1.364%)
 hessian update                 ...        0 min,  0.000 sec (  0.061%)
 rational function              ...        0 min,  0.002 sec (  0.931%)

================
 final structure:
================
18
 xtb: 6.4.1 (afa7bdf)
C        -3.74650652052024   -0.49725945996198   -0.45336892633340
C        -2.49725011061212   -0.58203381700678    0.07369103614099
C        -1.28128710847897   -0.03447337930802   -0.37113569595442
C        -0.17225654087851   -0.33995753243704    0.43517986446854
C         1.16643519031304    0.12245919023292    0.15788798313517
N         2.23342527297175   -0.25848007474325    0.85303835668525
N         3.28136414407743    0.37730196456601    0.30673550407647
C         2.91427625132798    1.16502235371403   -0.73182236898523
C         1.56041976409962    1.03112945144378   -0.86280241291565
C        -0.47037476842084   -1.12618855449952    1.52437995578159
S        -2.18097566248419   -1.49880922161154    1.57570970897324
H        -3.91926097926601    0.06049936536999   -1.36020349553843
H        -4.59482521443110   -0.97529001904047    0.00549608790423
H        -1.23395203694177    0.55175913058316   -1.27480504102231
H         4.20433870299148    0.23084074933415    0.68036326182278
H         3.63483262347570    1.74428577971298   -1.27904103657747
H         0.92483130693038    1.51130921745359   -1.57826269755413
H         0.17676568584654   -1.48211414380221    2.29895891589265
 
 Bond Distances (Angstroems)
 ---------------------------
C1-C2=1.3585         C1-H12=1.0786        C1-H13=1.0764        C2-C1=1.3585         C2-C3=1.4058         C2-S11=1.7879        
C3-C2=1.4058         C3-C4=1.4048         C3-H14=1.0782        C4-C3=1.4048         C4-C5=1.4432         C4-C10=1.3760        
C5-C4=1.4432         C5-N6=1.3292         C5-C9=1.4222         N6-C5=1.3292         N6-N7=1.3420         N7-N6=1.3420         
N7-C8=1.3542         N7-H15=1.0064        C8-N7=1.3542         C8-C9=1.3668         C8-H16=1.0743        C9-C5=1.4222         
C9-C8=1.3668         C9-H17=1.0707        C10-C4=1.3760        C10-S11=1.7515       C10-H18=1.0703       S11-C2=1.7879        
S11-C10=1.7515       H12-C1=1.0786        H13-C1=1.0764        H14-C3=1.0782        H15-N7=1.0064        H16-C8=1.0743        
H17-C9=1.0707        H18-C10=1.0703       
 C  H  Rav=1.0748 sigma=0.0033  Rmin=1.0703  Rmax=1.0786     6
 C  C  Rav=1.3968 sigma=0.0286  Rmin=1.3585  Rmax=1.4432     7
 N  H  Rav=1.0064 sigma=0.0000  Rmin=1.0064  Rmax=1.0064     1
 N  C  Rav=1.3417 sigma=0.0125  Rmin=1.3292  Rmax=1.3542     2
 N  N  Rav=1.3420 sigma=0.0000  Rmin=1.3420  Rmax=1.3420     1
 S  C  Rav=1.7697 sigma=0.0182  Rmin=1.7515  Rmax=1.7879     2
 
 selected bond angles (degree)
 --------------------
H12-C1-C2=120.38               H13-C1-C2=122.11               H13-C1-H12=117.51              C3-C2-C1=130.42                
S11-C2-C1=121.37               S11-C2-C3=108.21               C4-C3-C2=114.62                H14-C3-C2=120.99               
H14-C3-C4=124.38               C5-C4-C3=123.53                C10-C4-C3=114.05               C10-C4-C5=122.42               
N6-C5-C4=123.52                C9-C5-C4=126.84                C9-C5-N6=109.64                N7-N6-C5=106.15                
C8-N7-N6=112.09                H15-N7-N6=119.74               H15-N7-C8=128.17               C9-C8-N7=106.56                
H16-C8-N7=121.50               H16-C8-C9=131.94               C8-C9-C5=105.56                H17-C9-C5=126.99               
H17-C9-C8=127.45               S11-C10-C4=110.88              H18-C10-C4=129.19              H18-C10-S11=119.91             
 
 selected dihedral angles (degree)
 ---------------------------------
C3-C2-C1-H12=  0.13           C3-C2-C1-H13=180.09           S11-C2-C1-H12=179.98          S11-C2-C1-H13=359.93          
C4-C3-C2-C1=180.28            C4-C3-C2-S11=  0.42           H14-C3-C2-C1=359.07           H14-C3-C2-S11=179.21          
C5-C4-C3-C2=180.03            C5-C4-C3-H14=  1.28           C10-C4-C3-C2=  0.04           C10-C4-C3-H14=181.29          
N6-C5-C4-C3=185.98            N6-C5-C4-C10=  5.96           C9-C5-C4-C3=  6.14            C9-C5-C4-C10=186.13           
N7-N6-C5-C4=180.15            N7-N6-C5-C9=  0.00            C8-N7-N6-C5=  0.00            H15-N7-N6-C5=180.20           
C9-C8-N7-N6=  0.00            C9-C8-N7-H15=179.77           H16-C8-N7-N6=179.95           H16-C8-N7-H15=359.71          
C8-C9-C5-C4=179.84            C8-C9-C5-N6=  0.00            H17-C9-C5-C4=  0.14           H17-C9-C5-N6=180.29           
C5-C9-C8-N7=  0.00            C5-C9-C8-H16=180.07           H17-C9-C8-N7=179.70           H17-C9-C8-H16=359.77          
S11-C10-C4-C3=359.50          S11-C10-C4-C5=179.52          H18-C10-C4-C3=181.39          H18-C10-C4-C5=  1.40          
           -------------------------------------------------
          |                Final Singlepoint                |
           -------------------------------------------------

          ...................................................
          :                      SETUP                      :
          :.................................................:
          :  # basis functions                  57          :
          :  # atomic orbitals                  56          :
          :  # shells                           30          :
          :  # electrons                        56          :
          :  max. iterations                   250          :
          :  Hamiltonian                  GFN2-xTB          :
          :  restarted?                      false          :
          :  GBSA solvation                  false          :
          :  PC potential                    false          :
          :  electronic temp.          300.0000000     K    :
          :  accuracy                    1.0000000          :
          :  -> integral cutoff          0.2500000E+02      :
          :  -> integral neglect         0.1000000E-07      :
          :  -> SCF convergence          0.1000000E-05 Eh   :
          :  -> wf. convergence          0.1000000E-03 e    :
          :  Broyden damping             0.4000000          :
          ...................................................

 iter      E             dE          RMSdq      gap      omega  full diag
   1    -30.3699316 -0.303699E+02  0.100E-04    0.59       0.0  T
   2    -30.3699316 -0.211777E-10  0.686E-05    0.59     343.7  T
   3    -30.3699316 -0.374989E-10  0.439E-05    0.59     536.4  T

   *** convergence criteria satisfied after 3 iterations ***

         #    Occupation            Energy/Eh            Energy/eV
      -------------------------------------------------------------
         1        2.0000           -0.5617825             -15.2869
       ...           ...                  ...                  ...
        22        2.0000           -0.2620845              -7.1317
        23        2.0000           -0.2575397              -7.0080
        24        2.0000           -0.2529388              -6.8828
        25        2.0000           -0.2423410              -6.5944
        26        2.0000           -0.2073388              -5.6420
        27        2.0000           -0.1950988              -5.3089
        28        2.0000           -0.1094778              -2.9790 (HOMO)
        29        0.0000           -0.0879446              -2.3931 (LUMO)
        30                         -0.0489670              -1.3325
        31                         -0.0146785              -0.3994
        32                          0.0131784               0.3586
        33                          0.0666265               1.8130
       ...                                ...                  ...
        56                          0.8854650              24.0947
      -------------------------------------------------------------
                  HL-Gap            0.0215332 Eh            0.5859 eV
             Fermi-level           -0.0987112 Eh           -2.6861 eV
 
 localization/xTB-IFF output generation
 averaging CT terms over            1  occ. levels
 averaging CT terms over            1  virt. levels
 dipole moment from electron density (au)
     X       Y       Z   
   3.7234   1.7357  -1.3487  total (Debye):   10.990
cpu  time for init local    0.00 s
wall time for init local    0.01 s
 doing rotations ...
 initialization of trafo matrix to unity
iteration     50  convergence  0.27326076D-04

 converged in     62 iterations, threshold :   0.98943251D-06
 doing transformations ...
 lmo centers(Z=2) and atoms on file <lmocent.coord>
 LMO Fii/eV  ncent    charge center   contributions...
    1 sigma -13.50   1.95   5.28977   0.11222   1.06547    7N :  0.57    6N :  0.44
    2 sigma -13.18   1.92   5.99134   1.33665  -0.36028    7N :  0.58    8C :  0.43
    3 sigma -12.90   1.97   7.28373   0.54588   1.00454    7N :  0.56   15H :  0.44
    4 sigma -11.48   2.01   6.42446   2.93825  -2.07903   16H :  0.51    8C :  0.49
    5 sigma -10.74   1.99   2.48616   1.11682  -0.72455    9C :  0.52    5C :  0.48
    6 sigma -10.38   2.01   2.14570   2.55395  -2.53391   17H :  0.50    9C :  0.50
    7 sigma -10.12   2.01   0.98370  -0.19268   0.55181    5C :  0.54    4C :  0.46
    8 pi    -10.01   2.17   4.19897   1.63108  -1.77564    9C :  0.49    8C :  0.47
    9 pi     -9.98   2.11   3.41505  -0.47798   0.69250    6N :  0.55    5C :  0.41
   10 pi     -9.98   2.18   4.05390   2.39973  -1.12923    9C :  0.49    8C :  0.47
   11 pi     -9.97   2.10   3.29462   0.23542   1.27020    6N :  0.55    5C :  0.41
   12 pi     -9.84   1.55   5.83350   0.90228   0.45310    7N :  0.79    8C :  0.11
   13 sigma  -9.51   1.91  -2.55343  -2.54680   3.01518   11S :  0.60   10C :  0.40
   14 sigma  -9.44   2.00  -1.30109  -0.34263   0.03621    4C :  0.52    3C :  0.48
   15 sigma  -9.32   2.00  -3.60405  -0.59551  -0.29440    2C :  0.52    3C :  0.48
   16 sigma  -9.31   1.90  -4.49206  -2.03959   1.64754   11S :  0.61    2C :  0.39
   17 sigma  -9.08   2.00  -0.06864  -2.59117   3.87761   18H :  0.52   10C :  0.48
   18 sigma  -8.70   2.01  -2.36244   0.69181  -1.86637   14H :  0.53    3C :  0.47
   19 LP     -8.66   1.10  -5.18192  -1.28732   4.98362   11S :  0.95
   20 LP     -8.66   1.11  -4.36017  -5.47557   2.27192   11S :  0.95
   21 sigma  -8.49   2.00  -7.29495  -0.21845  -2.02657   12H :  0.53    1C :  0.47
   22 sigma  -8.42   1.99  -8.17799  -1.55868  -0.26216   13H :  0.53    1C :  0.47
   23 LP     -8.00   1.02   4.44989  -1.63527   3.05464    6N :  0.99
   24 pi     -7.91   2.15  -0.68538  -0.98539   2.16838   10C :  0.52    4C :  0.45
   25 pi     -7.86   2.13  -0.52522  -1.85170   1.61973   10C :  0.52    4C :  0.44
   26 pi     -7.33   2.00  -6.09546  -0.58261  -0.09419    1C :  0.56    2C :  0.43
   27 pi     -7.33   2.00  -5.91218  -1.46745  -0.67435    1C :  0.56    2C :  0.43
   28 delpi  -5.05   2.25  -2.45554  -0.39906  -0.15051    3C :  0.64    2C :  0.14    4C :  0.13
 starting deloc pi regularization ...
 thr    2.20000000000000      # pi deloc LMO           6
 files:
 coordprot.0/xtbscreen.xyz/xtblmoinfo/lmocent.coord
 with protonation site input, xtbdock and
 LMO center info written
 

 SCC (total)                   0 d,  0 h,  0 min,  0.034 sec
 SCC setup                      ...        0 min,  0.000 sec (  0.457%)
 Dispersion                     ...        0 min,  0.000 sec (  0.320%)
 classical contributions        ...        0 min,  0.000 sec (  0.099%)
 integral evaluation            ...        0 min,  0.004 sec ( 12.730%)
 iterations                     ...        0 min,  0.004 sec ( 11.568%)
 molecular gradient             ...        0 min,  0.010 sec ( 27.765%)
 printout                       ...        0 min,  0.016 sec ( 46.926%)

         :::::::::::::::::::::::::::::::::::::::::::::::::::::
         ::                     SUMMARY                     ::
         :::::::::::::::::::::::::::::::::::::::::::::::::::::
         :: total energy             -29.925170819114 Eh    ::
         :: gradient norm              0.000571131515 Eh/a0 ::
         :: HOMO-LUMO gap              0.585947762485 eV    ::
         ::.................................................::
         :: SCC energy               -30.369931649049 Eh    ::
         :: -> isotropic ES            0.110591453867 Eh    ::
         :: -> anisotropic ES          0.013602615994 Eh    ::
         :: -> anisotropic XC          0.019588519013 Eh    ::
         :: -> dispersion             -0.019012262007 Eh    ::
         :: repulsion energy           0.444797755672 Eh    ::
         :: add. restraining           0.000000000000 Eh    ::
         :: total charge              -1.000000000000 e     ::
         :::::::::::::::::::::::::::::::::::::::::::::::::::::

           -------------------------------------------------
          |                Property Printout                |
           -------------------------------------------------

    * Orbital Energies and Occupations

         #    Occupation            Energy/Eh            Energy/eV
      -------------------------------------------------------------
         1        2.0000           -0.5617825             -15.2869
       ...           ...                  ...                  ...
        16        2.0000           -0.3239524              -8.8152
        17        2.0000           -0.2970221              -8.0824
        18        2.0000           -0.2959235              -8.0525
        19        2.0000           -0.2749608              -7.4821
        20        2.0000           -0.2731092              -7.4317
        21        2.0000           -0.2652060              -7.2166
        22        2.0000           -0.2620845              -7.1317
        23        2.0000           -0.2575397              -7.0080
        24        2.0000           -0.2529388              -6.8828
        25        2.0000           -0.2423410              -6.5944
        26        2.0000           -0.2073388              -5.6420
        27        2.0000           -0.1950988              -5.3089
        28        2.0000           -0.1094778              -2.9790 (HOMO)
        29        0.0000           -0.0879446              -2.3931 (LUMO)
        30                         -0.0489670              -1.3325
        31                         -0.0146785              -0.3994
        32                          0.0131784               0.3586
        33                          0.0666265               1.8130
        34                          0.0748981               2.0381
        35                          0.1288843               3.5071
        36                          0.1837829               5.0010
        37                          0.2162738               5.8851
        38                          0.2223247               6.0498
        39                          0.2390608               6.5052
       ...                                ...                  ...
        56                          0.8854650              24.0947
      -------------------------------------------------------------
                  HL-Gap            0.0215332 Eh            0.5859 eV
             Fermi-level           -0.0987112 Eh           -2.6861 eV

     #   Z          covCN         q      C6AA      α(0)
     1   6 C        2.874    -0.193    33.065     9.426
     2   6 C        2.960     0.047    26.933     8.512
     3   6 C        3.071    -0.130    31.228     9.163
     4   6 C        3.123    -0.027    28.497     8.742
     5   6 C        3.135     0.073    26.158     8.372
     6   7 N        1.990    -0.266    27.704     7.806
     7   7 N        2.980    -0.023    21.683     6.916
     8   6 C        2.987    -0.016    28.407     8.743
     9   6 C        3.025    -0.077    29.899     8.969
    10   6 C        2.926    -0.057    29.405     8.893
    11  16 S        2.276    -0.303   154.197    20.900
    12   1 H        0.926    -0.049     4.069     3.154
    13   1 H        0.926    -0.043     3.922     3.097
    14   1 H        0.926    -0.045     3.972     3.117
    15   1 H        0.860     0.129     1.554     1.953
    16   1 H        0.926    -0.006     3.173     2.785
    17   1 H        0.926     0.009     2.909     2.667
    18   1 H        0.927    -0.024     3.501     2.926

 Mol. C6AA /au·bohr⁶  :       6092.454817
 Mol. C8AA /au·bohr⁸  :     167455.588098
 Mol. α(0) /au        :        126.140298


Wiberg/Mayer (AO) data.
largest (>0.10) Wiberg bond orders for each atom

 ---------------------------------------------------------------------------
     #   Z sym  total        # sym  WBO       # sym  WBO       # sym  WBO
 ---------------------------------------------------------------------------
     1   6 C    3.860 --     2 C    1.568    13 H    0.980    12 H    0.972
                             3 C    0.115    11 S    0.100
     2   6 C    3.931 --     1 C    1.568     3 C    1.287    11 S    1.006
     3   6 C    3.911 --     4 C    1.299     2 C    1.287    14 H    0.963
                            10 C    0.147     1 C    0.115
     4   6 C    3.975 --    10 C    1.449     3 C    1.299     5 C    1.089
     5   6 C    3.967 --     6 N    1.458     9 C    1.270     4 C    1.089
     6   7 N    2.933 --     5 C    1.458     7 N    1.172     8 C    0.163
     7   7 N    3.575 --     8 C    1.244     6 N    1.172    15 H    0.953
     8   6 C    3.950 --     9 C    1.554     7 N    1.244    16 H    0.969
                             6 N    0.163
     9   6 C    3.976 --     8 C    1.554     5 C    1.270    17 H    0.974
    10   6 C    3.871 --     4 C    1.449    11 S    1.076    18 H    0.972
                             3 C    0.147
    11  16 S    2.358 --    10 C    1.076     2 C    1.006     1 C    0.100
    12   1 H    0.997 --     1 C    0.972
    13   1 H    0.998 --     1 C    0.980
    14   1 H    0.998 --     3 C    0.963
    15   1 H    0.983 --     7 N    0.953
    16   1 H    0.999 --     8 C    0.969
    17   1 H    1.000 --     9 C    0.974
    18   1 H    0.999 --    10 C    0.972
 ---------------------------------------------------------------------------

Topologies differ in total number of bonds
Writing topology from bond orders to xtbtopo.mol

molecular dipole:
                 x           y           z       tot (Debye)
 q only:        3.170       1.230      -0.810
   full:        3.723       1.736      -1.349      10.990
molecular quadrupole (traceless):
                xx          xy          yy          xz          yz          zz
 q only:      -14.938      -7.545       8.575       1.897       5.568       6.363
  q+dip:      -10.390      -7.458       5.806       4.235       5.215       4.584
   full:      -11.080      -7.609       6.453       3.904       6.273       4.627

           -------------------------------------------------
          |                Geometry Summary                 |
           -------------------------------------------------

      molecular mass/u    :      163.2196663
   center of mass at/Å    :       -0.1461088      -0.2933396       0.3768153
  moments of inertia/u·Å² :        0.1739364E+03   0.9345759E+03   0.1107601E+04
rotational constants/cm⁻¹ :        0.9691835E-01   0.1803774E-01   0.1521996E-01

 * 18 selected distances

     #   Z          #   Z                                           value/Å
     1   6 C        2   6 C                                       1.3585362
     2   6 C        3   6 C                                       1.4057949
     3   6 C        4   6 C                                       1.4047826
     4   6 C        5   6 C                                       1.4431963
     5   6 C        6   7 N                                       1.3292165
     6   7 N        7   7 N                                       1.3419544
     7   7 N        8   6 C                                       1.3542006
     5   6 C        9   6 C                                       1.4222216
     8   6 C        9   6 C                                       1.3667518
     4   6 C       10   6 C                                       1.3760053
    10   6 C       11  16 S                                       1.7514669 (max)
     1   6 C       12   1 H                                       1.0785583
     1   6 C       13   1 H                                       1.0764362
     3   6 C       14   1 H                                       1.0782057
     7   7 N       15   1 H                                       1.0064445 (min)
     8   6 C       16   1 H                                       1.0743351
     9   6 C       17   1 H                                       1.0707141
    10   6 C       18   1 H                                       1.0702553

 * 6 distinct bonds (by element types)

   Z      Z             #   av. dist./Å        max./Å        min./Å
   1 H    6 C           6     1.0747508     1.0785583     1.0702553
   6 C    6 C           7     1.3967555     1.4431963     1.3585362
   1 H    7 N           1     1.0064445     1.0064445     1.0064445
   6 C    7 N           2     1.3417086     1.3542006     1.3292165
   7 N    7 N           1     1.3419544     1.3419544     1.3419544
   6 C   16 S           1     1.7514669     1.7514669     1.7514669


optimized geometry written to: xtbopt.xyz


           -------------------------------------------------
          | TOTAL ENERGY              -29.925170819114 Eh   |
          | GRADIENT NORM               0.000571131515 Eh/α |
          | HOMO-LUMO GAP               0.585947762485 eV   |
           -------------------------------------------------

------------------------------------------------------------------------
 * finished run on 2022/11/02 at 18:13:42.667     
------------------------------------------------------------------------
 total:
 * wall-time:     0 d,  0 h,  0 min,  0.340 sec
 *  cpu-time:     0 d,  0 h,  0 min,  0.295 sec
 * ratio c/w:     0.869 speedup
 SCF:
 * wall-time:     0 d,  0 h,  0 min,  0.053 sec
 *  cpu-time:     0 d,  0 h,  0 min,  0.045 sec
 * ratio c/w:     0.863 speedup
 ANC optimizer:
 * wall-time:     0 d,  0 h,  0 min,  0.229 sec
 *  cpu-time:     0 d,  0 h,  0 min,  0.221 sec
 * ratio c/w:     0.966 speedup

