      -----------------------------------------------------------      
     |                   =====================                   |     
     |                           x T B                           |     
     |                   =====================                   |     
     |                         S. Grimme                         |     
     |          Mulliken Center for Theoretical Chemistry        |     
     |                    University of Bonn                     |     
      -----------------------------------------------------------      

   * xtb version 6.4.1 (afa7bdf) compiled by 'ehlert@majestix' on 2021-06-10

   xtb is free software: you can redistribute it and/or modify it under
   the terms of the GNU Lesser General Public License as published by
   the Free Software Foundation, either version 3 of the License, or
   (at your option) any later version.
   
   xtb is distributed in the hope that it will be useful,
   but WITHOUT ANY WARRANTY; without even the implied warranty of
   MERCHANTABILITY or FITNESS FOR A PARTICULAR PURPOSE.  See the
   GNU Lesser General Public License for more details.
   
   Cite this work as:
   * C. Bannwarth, E. Caldeweyher, S. Ehlert, A. Hansen, P. Pracht,
     J. Seibert, S. Spicher, S. Grimme, WIREs Comput. Mol. Sci., 2020, 11,
     e01493. DOI: 10.1002/wcms.1493
   
   for GFN2-xTB:
   * C. Bannwarth, S. Ehlert and S. Grimme., J. Chem. Theory Comput., 2019,
     15, 1652-1671. DOI: 10.1021/acs.jctc.8b01176
   for GFN1-xTB:
   * S. Grimme, C. Bannwarth, P. Shushkov, J. Chem. Theory Comput., 2017,
     13, 1989-2009. DOI: 10.1021/acs.jctc.7b00118
   for GFN0-xTB:
   * P. Pracht, E. Caldeweyher, S. Ehlert, S. Grimme, ChemRxiv, 2019, preprint.
     DOI: 10.26434/chemrxiv.8326202.v1
   for GFN-FF:
   * S. Spicher and S. Grimme, Angew. Chem. Int. Ed., 2020, 59, 15665-15673.
     DOI: 10.1002/anie.202004239
   
   for DFT-D4:
   * E. Caldeweyher, C. Bannwarth and S. Grimme, J. Chem. Phys., 2017,
     147, 034112. DOI: 10.1063/1.4993215
   * E. Caldeweyher, S. Ehlert, A. Hansen, H. Neugebauer, S. Spicher,
     C. Bannwarth and S. Grimme, J. Chem. Phys., 2019, 150, 154122.
     DOI: 10.1063/1.5090222
   * E. Caldeweyher, J.-M. Mewes, S. Ehlert and S. Grimme, Phys. Chem. Chem. Phys.
     2020, 22, 8499-8512. DOI: 10.1039/D0CP00502A
   
   for sTDA-xTB:
   * S. Grimme and C. Bannwarth, J. Chem. Phys., 2016, 145, 054103.
     DOI: 10.1063/1.4959605
   
   in the mass-spec context:
   * V. Asgeirsson, C. Bauer and S. Grimme, Chem. Sci., 2017, 8, 4879.
     DOI: 10.1039/c7sc00601b
   * J. Koopman and S. Grimme, ACS Omega 2019, 4, 12, 15120-15133.
     DOI: 10.1021/acsomega.9b02011
   
   for metadynamics refer to:
   * S. Grimme, J. Chem. Theory Comput., 2019, 155, 2847-2862
     DOI: 10.1021/acs.jctc.9b00143
   
   for SPH calculations refer to:
   * S. Spicher and S. Grimme, J. Chem. Theory Comput., 2021, 17, 1701-1714
     DOI: 10.1021/acs.jctc.0c01306
   
   with help from (in alphabetical order)
   P. Atkinson, C. Bannwarth, F. Bohle, G. Brandenburg, E. Caldeweyher
   M. Checinski, S. Dohm, S. Ehlert, S. Ehrlich, I. Gerasimov, J. Koopman
   C. Lavigne, S. Lehtola, F. März, M. Müller, F. Musil, H. Neugebauer
   J. Pisarek, C. Plett, P. Pracht, J. Seibert, P. Shushkov, S. Spicher
   M. Stahn, M. Steiner, T. Strunk, J. Stückrath, T. Rose, and J. Unsleber
   
 * started run on 2022/11/02 at 18:13:38.971     

           -------------------------------------------------
          |                Calculation Setup                |
           -------------------------------------------------

          program call               : /lustre/hpc/kemi/borup/pKalculator/dep/xtb-6.4.1/bin/xtb --gfn 2 /lustre/hpc/kemi/borup/pKalculator/calc/test#-1=11/conf01/test#-1=11_conf01_gfn2.xyz --opt --lmo --chrg -1 --uhf 0
          hostname                   : fend01.cluster
          coordinate file            : /lustre/hpc/kemi/borup/pKalculator/calc/test#-1=11/conf01/test#-1=11_conf01_gfn2.xyz
          omp threads                :                     1
          number of atoms            :                    18
          number of electrons        :                    56
          charge                     :                    -1
          spin                       :                   0.0
          first test random number   :      0.69803144053215

   ID    Z sym.   atoms
    1    6 C      1-5, 8-10
    2    7 N      6, 7
    3   16 S      11
    4    1 H      12-18

           -------------------------------------------------
          |                 G F N 2 - x T B                 |
           -------------------------------------------------

        Reference                      10.1021/acs.jctc.8b01176
      * Hamiltonian:
        H0-scaling (s, p, d)           1.850000    2.230000    2.230000
        zeta-weighting                 0.500000
      * Dispersion:
        s8                             2.700000
        a1                             0.520000
        a2                             5.000000
        s9                             5.000000
      * Repulsion:
        kExp                           1.500000    1.000000
        rExp                           1.000000
      * Coulomb:
        alpha                          2.000000
        third order                    shell-resolved
        anisotropic                    true
        a3                             3.000000
        a5                             4.000000
        cn-shift                       1.200000
        cn-exp                         4.000000
        max-rad                        5.000000


          ...................................................
          :                      SETUP                      :
          :.................................................:
          :  # basis functions                  57          :
          :  # atomic orbitals                  56          :
          :  # shells                           30          :
          :  # electrons                        56          :
          :  max. iterations                   250          :
          :  Hamiltonian                  GFN2-xTB          :
          :  restarted?                      false          :
          :  GBSA solvation                  false          :
          :  PC potential                    false          :
          :  electronic temp.          300.0000000     K    :
          :  accuracy                    1.0000000          :
          :  -> integral cutoff          0.2500000E+02      :
          :  -> integral neglect         0.1000000E-07      :
          :  -> SCF convergence          0.1000000E-05 Eh   :
          :  -> wf. convergence          0.1000000E-03 e    :
          :  Broyden damping             0.4000000          :
          ...................................................

 iter      E             dE          RMSdq      gap      omega  full diag
   1    -30.1636851 -0.301637E+02  0.457E+00    2.95       0.0  T
   2    -29.0450494  0.111864E+01  0.649E+00    0.47       1.0  T
   3    -30.2106903 -0.116564E+01  0.300E+00    3.35       1.0  T
   4    -30.2634395 -0.527492E-01  0.188E+00    2.43       1.0  T
   5    -30.2793987 -0.159592E-01  0.137E+00    2.11       1.0  T
   6    -30.2932721 -0.138734E-01  0.100E+00    1.54       1.0  T
   7    -30.3011268 -0.785470E-02  0.708E-01    1.09       1.0  T
   8    -30.3063576 -0.523079E-02  0.396E-01    0.66       1.0  T
   9    -30.3084362 -0.207857E-02  0.193E-01    0.36       1.0  T
  10    -30.3086219 -0.185770E-03  0.105E-01    0.19       1.0  T
  11    -30.3086686 -0.466424E-04  0.109E-01    0.32       1.0  T
  12    -30.3088296 -0.161042E-03  0.729E-02    0.29       1.0  T
  13    -30.3089581 -0.128439E-03  0.975E-03    0.24       2.4  T
  14    -30.3089364  0.217045E-04  0.284E-02    0.22       1.0  T
  15    -30.3089586 -0.222803E-04  0.616E-03    0.24       3.8  T
  16    -30.3089593 -0.713751E-06  0.327E-03    0.24       7.2  T
  17    -30.3089596 -0.290803E-06  0.499E-04    0.24      47.2  T
  18    -30.3089596 -0.334884E-08  0.327E-04    0.24      72.0  T

   *** convergence criteria satisfied after 18 iterations ***

         #    Occupation            Energy/Eh            Energy/eV
      -------------------------------------------------------------
         1        2.0000           -0.5896554             -16.0453
       ...           ...                  ...                  ...
        22        2.0000           -0.2577227              -7.0130
        23        2.0000           -0.2486905              -6.7672
        24        2.0000           -0.2461544              -6.6982
        25        2.0000           -0.1884941              -5.1292
        26        2.0000           -0.1828153              -4.9747
        27        2.0000           -0.1647147              -4.4821
        28        1.9806           -0.1089732              -2.9653 (HOMO)
        29        0.0194           -0.1001822              -2.7261 (LUMO)
        30                         -0.0704189              -1.9162
        31                         -0.0416971              -1.1346
        32                          0.0072765               0.1980
        33                          0.0410472               1.1170
       ...                                ...                  ...
        56                          0.8910319              24.2462
      -------------------------------------------------------------
                  HL-Gap            0.0087910 Eh            0.2392 eV
             Fermi-level           -0.1045777 Eh           -2.8457 eV
 
 localization/xTB-IFF output generation
 averaging CT terms over            1  occ. levels
 averaging CT terms over            1  virt. levels
 dipole moment from electron density (au)
     X       Y       Z   
  -3.2906   0.0826   0.0626  total (Debye):    8.368
cpu  time for init local    0.00 s
wall time for init local    0.01 s
 doing rotations ...
 initialization of trafo matrix to unity
iteration     50  convergence  0.20393890D-04

 converged in     66 iterations, threshold :   0.99889656D-06
 doing transformations ...
 lmo centers(Z=2) and atoms on file <lmocent.coord>
 LMO Fii/eV  ncent    charge center   contributions...
    1 sigma -11.60   1.97  -5.24039   0.11051   0.28371    1C :  0.52    2C :  0.49
    2 sigma -11.36   1.94  -3.74978   2.35194   0.38455   11S :  0.58    2C :  0.42
    3 sigma -11.21   2.00  -6.82100  -0.79268   1.57124    1C :  0.51   14H :  0.49
    4 sigma -11.19   1.98  -6.48540  -1.62313  -0.44306    1C :  0.51   13H :  0.50
    5 sigma -11.17   1.98  -7.40193   0.37022  -0.21131    1C :  0.51   12H :  0.50
    6 sigma -11.13   1.90  -1.79578   3.81436   0.41635   11S :  0.61   10C :  0.39
    7 sigma -11.02   1.97   6.14757   0.63487  -0.09682    7N :  0.53    6N :  0.48
    8 sigma -10.56   2.00  -0.59027   0.10727   0.11101    3C :  0.51    4C :  0.48
    9 LP    -10.41   1.14  -4.03893   4.74870  -1.90510   11S :  0.93
   10 LP    -10.37   1.15  -3.84646   4.38810   3.00249   11S :  0.93
   11 sigma -10.24   1.99   8.23772   0.16657  -0.21841    7N :  0.53   16H :  0.47
   12 sigma -10.21   2.02  -1.67509  -1.95475   0.00809    3C :  0.50   15H :  0.50
   13 sigma -10.19   2.01   0.76078   4.48811   0.36762   10C :  0.50   18H :  0.49
   14 pi     -9.76   2.11  -2.80606   0.12160  -0.33393    2C :  0.49    3C :  0.48
   15 pi     -9.75   2.11  -2.76753   0.04765   0.71040    2C :  0.49    3C :  0.48
   16 sigma  -9.62   2.03   1.71442   0.55080   0.05380    4C :  0.54    5C :  0.44
   17 sigma  -9.40   1.83   6.80150  -1.25740  -0.26307    7N :  0.65    8C :  0.36
   18 pi     -9.19   2.17   0.08047   2.23743  -0.28360   10C :  0.51    4C :  0.45
   19 pi     -9.18   2.17   0.12145   2.16774   0.74537   10C :  0.51    4C :  0.45
   20 sigma  -8.38   2.00   3.30719  -1.26923  -0.14233    5C :  0.53    9C :  0.46
   21 sigma  -8.22   1.99   2.92980  -3.73098  -0.30896   17H :  0.55    9C :  0.45
   22 pi     -8.21   2.15   4.11984   0.82219  -0.48498    6N :  0.52    5C :  0.45
   23 pi     -8.21   2.15   4.15451   0.75457   0.44593    6N :  0.52    5C :  0.44
   24 pi     -7.05   1.57   6.62566  -0.20511  -0.20355    7N :  0.79    6N :  0.10    8C :  0.08
   25 delpi  -6.60   2.25   4.75064  -2.34920  -0.75573    9C :  0.55    8C :  0.37
   26 delpi  -6.54   2.27   4.77778  -2.40689   0.20092    9C :  0.55    8C :  0.36
   27 LP     -6.31   1.02   5.42191   3.28705   0.11615    6N :  0.99
   28 LP     -4.29   1.07   7.40122  -4.01615  -0.49722    8C :  0.97
 starting deloc pi regularization ...
 thr    2.20000000000000      # pi deloc LMO           5
 files:
 coordprot.0/xtbscreen.xyz/xtblmoinfo/lmocent.coord
 with protonation site input, xtbdock and
 LMO center info written
 

 SCC (total)                   0 d,  0 h,  0 min,  0.057 sec
 SCC setup                      ...        0 min,  0.000 sec (  0.558%)
 Dispersion                     ...        0 min,  0.000 sec (  0.427%)
 classical contributions        ...        0 min,  0.000 sec (  0.107%)
 integral evaluation            ...        0 min,  0.005 sec (  8.255%)
 iterations                     ...        0 min,  0.021 sec ( 37.331%)
 molecular gradient             ...        0 min,  0.010 sec ( 17.650%)
 printout                       ...        0 min,  0.020 sec ( 35.572%)

         :::::::::::::::::::::::::::::::::::::::::::::::::::::
         ::                     SUMMARY                     ::
         :::::::::::::::::::::::::::::::::::::::::::::::::::::
         :: total energy             -29.888921195136 Eh    ::
         :: gradient norm              0.115464586823 Eh/a0 ::
         :: HOMO-LUMO gap              0.239214846895 eV    ::
         ::.................................................::
         :: SCC energy               -30.308959643664 Eh    ::
         :: -> isotropic ES            0.122478616056 Eh    ::
         :: -> anisotropic ES          0.003717872362 Eh    ::
         :: -> anisotropic XC          0.017616117021 Eh    ::
         :: -> dispersion             -0.018559347257 Eh    ::
         :: repulsion energy           0.420056745745 Eh    ::
         :: add. restraining           0.000000000000 Eh    ::
         :: total charge              -1.000000000000 e     ::
         :::::::::::::::::::::::::::::::::::::::::::::::::::::

      ----------------------------------------------------------- 
     |                   =====================                   |
     |                        A N C O P T                        |
     |                   =====================                   |
     |               Approximate Normal Coordinate               |
     |                Rational Function Optimizer                |
      ----------------------------------------------------------- 

          ...................................................
          :                      SETUP                      :
          :.................................................:
          :   optimization level            normal          :
          :   max. optcycles                   200          :
          :   ANC micro-cycles                  20          :
          :   degrees of freedom                48          :
          :.................................................:
          :   RF solver                   davidson          :
          :   write xtbopt.log                true          :
          :   linear?                        false          :
          :   energy convergence         0.5000000E-05 Eh   :
          :   grad. convergence          0.1000000E-02 Eh/α :
          :   maximium RF displ.         1.0000000          :
          :   Hlow (freq-cutoff)         0.1000000E-01      :
          :   Hmax (freq-cutoff)         5.0000000          :
          :   S6 in model hess.         20.0000000          :
          ...................................................

generating ANC from model Hessian ...
Using Lindh-Hessian (1995)
 Shifting diagonal of input Hessian by   8.276048151189703E-003
 Lowest  eigenvalues of input Hessian
    0.000000    0.000000    0.000000    0.000000    0.000000    0.000000
    0.010000    0.011884    0.013080    0.015777    0.020753    0.025149
    0.030823    0.040411    0.042736    0.044614    0.053145    0.054503
 Highest eigenvalues
    1.629918    1.792877    1.846354    1.903628    1.936967    2.028240
 

........................................................................
.............................. CYCLE    1 ..............................
........................................................................
   1    -30.3089596 -0.303090E+02  0.254E-05    0.24       0.0  T
   2    -30.3089596  0.986375E-10  0.569E-05    0.24     414.3  T
   3    -30.3089596 -0.114351E-09  0.757E-06    0.24    3115.6  T
     SCC iter.                  ...        0 min,  0.004 sec
     gradient                   ...        0 min,  0.016 sec
 * total energy  :   -29.8889212 Eh     change       -0.2897526E-08 Eh
   gradient norm :     0.1154686 Eh/α   predicted     0.0000000E+00 (-100.00%)
   displ. norm   :     0.1878006 α      lambda       -0.1247799E-01
   maximum displ.:     0.0842090 α      in ANC's #10, #22, #14, ...

........................................................................
.............................. CYCLE    2 ..............................
........................................................................
   1    -30.3129319 -0.303129E+02  0.322E-01    0.48       0.0  T
   2    -30.3131630 -0.231123E-03  0.190E-01    0.37       1.0  T
   3    -30.3131617  0.129855E-05  0.985E-02    0.40       1.0  T
   4    -30.3132223 -0.606362E-04  0.338E-02    0.39       1.0  T
   5    -30.3132266 -0.424259E-05  0.191E-02    0.39       1.2  T
   6    -30.3132286 -0.199628E-05  0.101E-02    0.39       2.3  T
   7    -30.3132290 -0.413270E-06  0.465E-03    0.39       5.1  T
   8    -30.3132291 -0.146668E-06  0.181E-03    0.39      13.0  T
   9    -30.3132292 -0.202091E-07  0.825E-04    0.39      28.6  T
  10    -30.3132292 -0.357178E-08  0.248E-04    0.39      94.9  T
     SCC iter.                  ...        0 min,  0.017 sec
     gradient                   ...        0 min,  0.016 sec
 * total energy  :   -29.8973873 Eh     change       -0.8466149E-02 Eh
   gradient norm :     0.0459787 Eh/α   predicted    -0.6459040E-02 ( -23.71%)
   displ. norm   :     0.1566883 α      lambda       -0.3293798E-02
   maximum displ.:     0.0782095 α      in ANC's #10, #3, #22, ...

........................................................................
.............................. CYCLE    3 ..............................
........................................................................
   1    -30.3150200 -0.303150E+02  0.209E-01    0.54       0.0  T
   2    -30.3150787 -0.587204E-04  0.112E-01    0.56       1.0  T
   3    -30.3150739  0.484673E-05  0.795E-02    0.53       1.0  T
   4    -30.3151176 -0.437230E-04  0.244E-02    0.56       1.0  T
   5    -30.3151228 -0.525952E-05  0.120E-02    0.55       2.0  T
   6    -30.3151234 -0.523153E-06  0.616E-03    0.55       3.8  T
   7    -30.3151236 -0.204070E-06  0.259E-03    0.55       9.1  T
   8    -30.3151236 -0.316067E-07  0.999E-04    0.55      23.6  T
   9    -30.3151236 -0.293887E-08  0.487E-04    0.55      48.4  T
     SCC iter.                  ...        0 min,  0.011 sec
     gradient                   ...        0 min,  0.010 sec
 * total energy  :   -29.8992525 Eh     change       -0.1865153E-02 Eh
   gradient norm :     0.0117705 Eh/α   predicted    -0.1687333E-02 (  -9.53%)
   displ. norm   :     0.0893399 α      lambda       -0.2648218E-03
   maximum displ.:     0.0759768 α      in ANC's #3, #7, #4, ...

........................................................................
.............................. CYCLE    4 ..............................
........................................................................
   1    -30.3144158 -0.303144E+02  0.574E-02    0.57       0.0  T
   2    -30.3144210 -0.516162E-05  0.305E-02    0.57       1.0  T
   3    -30.3144204  0.593314E-06  0.187E-02    0.57       1.3  T
   4    -30.3144233 -0.296061E-05  0.479E-03    0.57       4.9  T
   5    -30.3144235 -0.131760E-06  0.188E-03    0.57      12.5  T
   6    -30.3144235  0.260659E-09  0.118E-03    0.57      20.0  T
   7    -30.3144235 -0.148079E-07  0.397E-04    0.57      59.4  T
   8    -30.3144235 -0.277190E-09  0.238E-04    0.57      99.0  T
     SCC iter.                  ...        0 min,  0.009 sec
     gradient                   ...        0 min,  0.010 sec
 * total energy  :   -29.8994419 Eh     change       -0.1893756E-03 Eh
   gradient norm :     0.0059938 Eh/α   predicted    -0.1334689E-03 ( -29.52%)
   displ. norm   :     0.1176392 α      lambda       -0.1558691E-03
   maximum displ.:     0.1066637 α      in ANC's #3, #4, #7, ...

........................................................................
.............................. CYCLE    5 ..............................
........................................................................
   1    -30.3138977 -0.303139E+02  0.523E-02    0.57       0.0  T
   2    -30.3139028 -0.511159E-05  0.303E-02    0.57       1.0  T
   3    -30.3139021  0.702499E-06  0.176E-02    0.57       1.3  T
   4    -30.3139049 -0.280476E-05  0.684E-03    0.57       3.4  T
   5    -30.3139053 -0.353921E-06  0.259E-03    0.57       9.1  T
   6    -30.3139054 -0.673483E-07  0.103E-03    0.57      22.8  T
   7    -30.3139054 -0.448356E-08  0.403E-04    0.57      58.5  T
   8    -30.3139054 -0.103948E-08  0.208E-04    0.57     113.1  T
     SCC iter.                  ...        0 min,  0.009 sec
     gradient                   ...        0 min,  0.010 sec
 * total energy  :   -29.8995393 Eh     change       -0.9739480E-04 Eh
   gradient norm :     0.0033729 Eh/α   predicted    -0.7901199E-04 ( -18.87%)
   displ. norm   :     0.0613794 α      lambda       -0.3673638E-04
   maximum displ.:     0.0543700 α      in ANC's #3, #4, #5, ...

........................................................................
.............................. CYCLE    6 ..............................
........................................................................
   1    -30.3141828 -0.303142E+02  0.200E-02    0.56       0.0  T
   2    -30.3141833 -0.443794E-06  0.120E-02    0.56       2.0  T
   3    -30.3141829  0.412481E-06  0.837E-03    0.56       2.8  T
   4    -30.3141836 -0.773148E-06  0.222E-03    0.56      10.6  T
   5    -30.3141837 -0.338324E-07  0.951E-04    0.56      24.8  T
   6    -30.3141837 -0.536949E-08  0.493E-04    0.56      47.8  T
     SCC iter.                  ...        0 min,  0.007 sec
     gradient                   ...        0 min,  0.009 sec
 * total energy  :   -29.8995675 Eh     change       -0.2826678E-04 Eh
   gradient norm :     0.0024835 Eh/α   predicted    -0.1843796E-04 ( -34.77%)
   displ. norm   :     0.0662865 α      lambda       -0.3081532E-04
   maximum displ.:     0.0517193 α      in ANC's #3, #4, #5, ...

........................................................................
.............................. CYCLE    7 ..............................
........................................................................
   1    -30.3146621 -0.303147E+02  0.205E-02    0.55       0.0  T
   2    -30.3146622 -0.921034E-07  0.120E-02    0.55       2.0  T
   3    -30.3146613  0.905330E-06  0.948E-03    0.56       2.5  T
   4    -30.3146625 -0.120070E-05  0.134E-03    0.55      17.6  T
   5    -30.3146625 -0.599553E-08  0.747E-04    0.55      31.5  T
   6    -30.3146625 -0.330629E-08  0.370E-04    0.55      63.6  T
     SCC iter.                  ...        0 min,  0.007 sec
     gradient                   ...        0 min,  0.010 sec
 * total energy  :   -29.8995909 Eh     change       -0.2334796E-04 Eh
   gradient norm :     0.0016333 Eh/α   predicted    -0.1547648E-04 ( -33.71%)
   displ. norm   :     0.1301482 α      lambda       -0.2578293E-04
   maximum displ.:     0.0896874 α      in ANC's #3, #4, #5, ...

........................................................................
.............................. CYCLE    8 ..............................
........................................................................
   1    -30.3148746 -0.303149E+02  0.397E-02    0.55       0.0  T
   2    -30.3148750 -0.381267E-06  0.234E-02    0.54       1.0  T
   3    -30.3148721  0.290703E-05  0.173E-02    0.55       1.4  T
   4    -30.3148758 -0.376210E-05  0.281E-03    0.55       8.4  T
   5    -30.3148759 -0.737789E-07  0.118E-03    0.55      19.9  T
   6    -30.3148759 -0.459012E-08  0.413E-04    0.55      57.1  T
   7    -30.3148759 -0.791307E-09  0.213E-04    0.55     110.6  T
     SCC iter.                  ...        0 min,  0.008 sec
     gradient                   ...        0 min,  0.010 sec
 * total energy  :   -29.8996133 Eh     change       -0.2238319E-04 Eh
   gradient norm :     0.0025364 Eh/α   predicted    -0.1298882E-04 ( -41.97%)
   displ. norm   :     0.0428834 α      lambda       -0.1172328E-04
   maximum displ.:     0.0261123 α      in ANC's #4, #5, #3, ...

........................................................................
.............................. CYCLE    9 ..............................
........................................................................
   1    -30.3148122 -0.303148E+02  0.138E-02    0.55       0.0  T
   2    -30.3148123 -0.692914E-07  0.815E-03    0.55       2.9  T
   3    -30.3148120  0.271804E-06  0.517E-03    0.55       4.6  T
   4    -30.3148123 -0.328417E-06  0.110E-03    0.55      21.3  T
   5    -30.3148123 -0.117384E-07  0.432E-04    0.55      54.6  T
   6    -30.3148123 -0.744247E-09  0.192E-04    0.55     122.8  T
     SCC iter.                  ...        0 min,  0.007 sec
     gradient                   ...        0 min,  0.010 sec
 * total energy  :   -29.8996238 Eh     change       -0.1049340E-04 Eh
   gradient norm :     0.0020214 Eh/α   predicted    -0.5871541E-05 ( -44.05%)
   displ. norm   :     0.1896435 α      lambda       -0.4871444E-04
   maximum displ.:     0.1223625 α      in ANC's #4, #5, #2, ...

........................................................................
.............................. CYCLE   10 ..............................
........................................................................
   1    -30.3139439 -0.303139E+02  0.584E-02    0.56       0.0  T
   2    -30.3139446 -0.722828E-06  0.346E-02    0.55       1.0  T
   3    -30.3139397  0.495071E-05  0.198E-02    0.56       1.2  T
   4    -30.3139453 -0.563125E-05  0.378E-03    0.55       6.2  T
   5    -30.3139454 -0.106470E-06  0.159E-03    0.55      14.8  T
   6    -30.3139454 -0.947453E-08  0.729E-04    0.55      32.3  T
   7    -30.3139454 -0.331824E-08  0.292E-04    0.55      80.7  T
     SCC iter.                  ...        0 min,  0.008 sec
     gradient                   ...        0 min,  0.010 sec
 * total energy  :   -29.8996532 Eh     change       -0.2945200E-04 Eh
   gradient norm :     0.0025366 Eh/α   predicted    -0.2523095E-04 ( -14.33%)
   displ. norm   :     0.0666890 α      lambda       -0.2241076E-04
   maximum displ.:     0.0420493 α      in ANC's #4, #5, #2, ...

........................................................................
.............................. CYCLE   11 ..............................
........................................................................
   1    -30.3141440 -0.303141E+02  0.202E-02    0.56       0.0  T
   2    -30.3141441 -0.955273E-07  0.118E-02    0.56       2.0  T
   3    -30.3141440  0.975478E-07  0.332E-03    0.56       7.1  T
   4    -30.3141441 -0.120178E-06  0.106E-03    0.56      22.1  T
   5    -30.3141441 -0.562239E-08  0.458E-04    0.56      51.4  T
   6    -30.3141441 -0.713467E-09  0.240E-04    0.56      98.3  T
     SCC iter.                  ...        0 min,  0.007 sec
     gradient                   ...        0 min,  0.010 sec
 * total energy  :   -29.8996716 Eh     change       -0.1840972E-04 Eh
   gradient norm :     0.0025035 Eh/α   predicted    -0.1125653E-04 ( -38.86%)
   displ. norm   :     0.2181948 α      lambda       -0.5287196E-04
   maximum displ.:     0.1438436 α      in ANC's #4, #5, #2, ...

........................................................................
.............................. CYCLE   12 ..............................
........................................................................
   1    -30.3134270 -0.303134E+02  0.609E-02    0.56       0.0  T
   2    -30.3134276 -0.590449E-06  0.358E-02    0.56       1.0  T
   3    -30.3134267  0.839565E-06  0.966E-03    0.56       2.4  T
   4    -30.3134277 -0.102851E-05  0.267E-03    0.56       8.8  T
   5    -30.3134278 -0.129779E-07  0.153E-03    0.56      15.4  T
   6    -30.3134278 -0.200451E-07  0.528E-04    0.56      44.6  T
   7    -30.3134278 -0.236343E-08  0.214E-04    0.56     110.3  T
     SCC iter.                  ...        0 min,  0.009 sec
     gradient                   ...        0 min,  0.010 sec
 * total energy  :   -29.8997060 Eh     change       -0.3435665E-04 Eh
   gradient norm :     0.0045207 Eh/α   predicted    -0.2769413E-04 ( -19.39%)
   displ. norm   :     0.1513231 α      lambda       -0.7712028E-04
   maximum displ.:     0.0841398 α      in ANC's #4, #5, #3, ...

........................................................................
.............................. CYCLE   13 ..............................
........................................................................
   1    -30.3143439 -0.303143E+02  0.470E-02    0.56       0.0  T
   2    -30.3143453 -0.140469E-05  0.277E-02    0.56       1.0  T
   3    -30.3143428  0.246145E-05  0.182E-02    0.56       1.3  T
   4    -30.3143461 -0.324057E-05  0.466E-03    0.56       5.1  T
   5    -30.3143463 -0.259613E-06  0.140E-03    0.56      16.8  T
   6    -30.3143463 -0.814703E-08  0.701E-04    0.56      33.6  T
   7    -30.3143463 -0.895614E-09  0.246E-04    0.56      95.9  T
     SCC iter.                  ...        0 min,  0.008 sec
     gradient                   ...        0 min,  0.010 sec
 * total energy  :   -29.8997570 Eh     change       -0.5106812E-04 Eh
   gradient norm :     0.0035582 Eh/α   predicted    -0.3944239E-04 ( -22.77%)
   displ. norm   :     0.2320413 α      lambda       -0.4652177E-04
   maximum displ.:     0.1472971 α      in ANC's #4, #5, #2, ...

........................................................................
.............................. CYCLE   14 ..............................
........................................................................
   1    -30.3130201 -0.303130E+02  0.674E-02    0.55       0.0  T
   2    -30.3130215 -0.141862E-05  0.398E-02    0.56       1.0  T
   3    -30.3130154  0.614568E-05  0.221E-02    0.55       1.1  T
   4    -30.3130223 -0.695887E-05  0.448E-03    0.56       5.3  T
   5    -30.3130225 -0.149489E-06  0.186E-03    0.56      12.7  T
   6    -30.3130225 -0.913376E-08  0.917E-04    0.55      25.7  T
   7    -30.3130225 -0.618851E-08  0.316E-04    0.55      74.5  T
     SCC iter.                  ...        0 min,  0.008 sec
     gradient                   ...        0 min,  0.010 sec
 * total energy  :   -29.8997588 Eh     change       -0.1702081E-05 Eh
   gradient norm :     0.0063619 Eh/α   predicted    -0.2451277E-04 (1340.16%)
   displ. norm   :     0.0580848 α      lambda       -0.9351835E-04
   maximum displ.:     0.0349755 α      in ANC's #4, #5, #2, ...

........................................................................
.............................. CYCLE   15 ..............................
........................................................................
   1    -30.3153829 -0.303154E+02  0.341E-02    0.55       0.0  T
   2    -30.3153843 -0.143218E-05  0.193E-02    0.55       1.2  T
   3    -30.3153833  0.108220E-05  0.119E-02    0.55       2.0  T
   4    -30.3153848 -0.159493E-05  0.437E-03    0.55       5.4  T
   5    -30.3153850 -0.161418E-06  0.159E-03    0.55      14.8  T
   6    -30.3153850 -0.108443E-07  0.775E-04    0.55      30.4  T
   7    -30.3153850 -0.276316E-08  0.320E-04    0.55      73.6  T
     SCC iter.                  ...        0 min,  0.008 sec
     gradient                   ...        0 min,  0.011 sec
 * total energy  :   -29.8997951 Eh     change       -0.3637490E-04 Eh
   gradient norm :     0.0017307 Eh/α   predicted    -0.4691562E-04 (  28.98%)
   displ. norm   :     0.0766008 α      lambda       -0.1144968E-04
   maximum displ.:     0.0486530 α      in ANC's #4, #5, #2, ...

........................................................................
.............................. CYCLE   16 ..............................
........................................................................
   1    -30.3147210 -0.303147E+02  0.229E-02    0.55       0.0  T
   2    -30.3147215 -0.445178E-06  0.134E-02    0.55       1.8  T
   3    -30.3147213  0.194613E-06  0.580E-03    0.55       4.1  T
   4    -30.3147215 -0.260018E-06  0.167E-03    0.55      14.1  T
   5    -30.3147215 -0.291389E-07  0.586E-04    0.55      40.2  T
   6    -30.3147215 -0.201938E-08  0.310E-04    0.55      76.0  T
     SCC iter.                  ...        0 min,  0.008 sec
     gradient                   ...        0 min,  0.010 sec
 * total energy  :   -29.8998064 Eh     change       -0.1131941E-04 Eh
   gradient norm :     0.0016232 Eh/α   predicted    -0.5739552E-05 ( -49.29%)
   displ. norm   :     0.0778812 α      lambda       -0.8062068E-05
   maximum displ.:     0.0481421 α      in ANC's #4, #5, #2, ...

........................................................................
.............................. CYCLE   17 ..............................
........................................................................
   1    -30.3144695 -0.303145E+02  0.227E-02    0.55       0.0  T
   2    -30.3144700 -0.553789E-06  0.133E-02    0.55       1.8  T
   3    -30.3144698  0.177372E-06  0.682E-03    0.55       3.5  T
   4    -30.3144702 -0.305740E-06  0.175E-03    0.55      13.4  T
   5    -30.3144702 -0.302953E-07  0.650E-04    0.55      36.3  T
   6    -30.3144702 -0.342148E-08  0.296E-04    0.55      79.7  T
     SCC iter.                  ...        0 min,  0.008 sec
     gradient                   ...        0 min,  0.010 sec
 * total energy  :   -29.8998148 Eh     change       -0.8355423E-05 Eh
   gradient norm :     0.0021689 Eh/α   predicted    -0.4042641E-05 ( -51.62%)
   displ. norm   :     0.0428368 α      lambda       -0.9263855E-05
   maximum displ.:     0.0232447 α      in ANC's #4, #5, #2, ...

........................................................................
.............................. CYCLE   18 ..............................
........................................................................
   1    -30.3145566 -0.303146E+02  0.128E-02    0.56       0.0  T
   2    -30.3145568 -0.152085E-06  0.760E-03    0.55       3.1  T
   3    -30.3145566  0.141732E-06  0.485E-03    0.56       4.9  T
   4    -30.3145568 -0.192891E-06  0.141E-03    0.56      16.7  T
   5    -30.3145569 -0.251311E-07  0.402E-04    0.56      58.7  T
   6    -30.3145569 -0.121386E-08  0.190E-04    0.56     124.0  T
     SCC iter.                  ...        0 min,  0.008 sec
     gradient                   ...        0 min,  0.010 sec
 * total energy  :   -29.8998223 Eh     change       -0.7521828E-05 Eh
   gradient norm :     0.0020480 Eh/α   predicted    -0.4642256E-05 ( -38.28%)
   displ. norm   :     0.1183530 α      lambda       -0.1707915E-04
   maximum displ.:     0.0683469 α      in ANC's #4, #5, #2, ...

........................................................................
.............................. CYCLE   19 ..............................
........................................................................
   1    -30.3144621 -0.303145E+02  0.318E-02    0.56       0.0  T
   2    -30.3144622 -0.103822E-06  0.189E-02    0.56       1.2  T
   3    -30.3144612  0.102976E-05  0.878E-03    0.56       2.7  T
   4    -30.3144623 -0.113402E-05  0.146E-03    0.56      16.2  T
   5    -30.3144623 -0.128401E-07  0.669E-04    0.56      35.2  T
   6    -30.3144623 -0.226189E-08  0.231E-04    0.56     102.1  T
     SCC iter.                  ...        0 min,  0.008 sec
     gradient                   ...        0 min,  0.010 sec
 * total energy  :   -29.8998344 Eh     change       -0.1203765E-04 Eh
   gradient norm :     0.0023424 Eh/α   predicted    -0.8659234E-05 ( -28.07%)
   displ. norm   :     0.0875772 α      lambda       -0.1340129E-04
   maximum displ.:     0.0465393 α      in ANC's #4, #2, #5, ...

........................................................................
.............................. CYCLE   20 ..............................
........................................................................
   1    -30.3146843 -0.303147E+02  0.236E-02    0.56       0.0  T
   2    -30.3146844 -0.849659E-07  0.141E-02    0.56       1.7  T
   3    -30.3146836  0.843730E-06  0.758E-03    0.56       3.1  T
   4    -30.3146845 -0.946796E-06  0.122E-03    0.56      19.4  T
   5    -30.3146845 -0.110030E-07  0.588E-04    0.56      40.1  T
   6    -30.3146845 -0.188341E-08  0.231E-04    0.56     102.1  T
     SCC iter.                  ...        0 min,  0.007 sec
     gradient                   ...        0 min,  0.010 sec
 * total energy  :   -29.8998442 Eh     change       -0.9814330E-05 Eh
   gradient norm :     0.0016417 Eh/α   predicted    -0.6751930E-05 ( -31.20%)
   displ. norm   :     0.1590460 α      lambda       -0.1006144E-04
   maximum displ.:     0.0882802 α      in ANC's #4, #2, #5, ...
 * RMSD in coord.:     0.3979641 α      energy gain  -0.1092298E-01 Eh

generating ANC from model Hessian ...
Using Lindh-Hessian (1995)
 Shifting diagonal of input Hessian by   8.199749117230457E-003
 Lowest  eigenvalues of input Hessian
    0.000000    0.000000    0.000000    0.000000    0.000000    0.000000
    0.010000    0.012331    0.013573    0.015854    0.021822    0.026290
    0.031502    0.035812    0.043842    0.044317    0.055572    0.058029
 Highest eigenvalues
    1.647066    1.765562    1.827827    1.913198    1.957772    2.056546
 

........................................................................
.............................. CYCLE   21 ..............................
........................................................................
   1    -30.3144759 -0.303145E+02  0.426E-02    0.55       0.0  T
   2    -30.3144767 -0.708626E-06  0.253E-02    0.55       1.0  T
   3    -30.3144757  0.928447E-06  0.958E-03    0.55       2.5  T
   4    -30.3144768 -0.109298E-05  0.235E-03    0.55      10.0  T
   5    -30.3144769 -0.653120E-07  0.949E-04    0.55      24.8  T
   6    -30.3144769 -0.636851E-08  0.458E-04    0.55      51.4  T
     SCC iter.                  ...        0 min,  0.007 sec
     gradient                   ...        0 min,  0.010 sec
 * total energy  :   -29.8998498 Eh     change       -0.5610800E-05 Eh
   gradient norm :     0.0018271 Eh/α   predicted     0.0000000E+00 (-100.00%)
   displ. norm   :     0.0129075 α      lambda       -0.8061559E-05
   maximum displ.:     0.0082633 α      in ANC's #3, #1, #24, ...

........................................................................
.............................. CYCLE   22 ..............................
........................................................................
   1    -30.3152028 -0.303152E+02  0.110E-02    0.55       0.0  T
   2    -30.3152030 -0.165283E-06  0.617E-03    0.55       3.8  T
   3    -30.3152030  0.374869E-07  0.255E-03    0.55       9.3  T
   4    -30.3152030 -0.358324E-07  0.129E-03    0.55      18.3  T
   5    -30.3152030 -0.230165E-07  0.358E-04    0.55      65.9  T
   6    -30.3152030  0.177540E-09  0.237E-04    0.55      99.5  T
     SCC iter.                  ...        0 min,  0.007 sec
     gradient                   ...        0 min,  0.010 sec
 * total energy  :   -29.8998547 Eh     change       -0.4960847E-05 Eh
   gradient norm :     0.0004413 Eh/α   predicted    -0.4031657E-05 ( -18.73%)
   displ. norm   :     0.0084585 α      lambda       -0.8535411E-06
   maximum displ.:     0.0056265 α      in ANC's #3, #1, #2, ...

   *** GEOMETRY OPTIMIZATION CONVERGED AFTER 22 ITERATIONS ***

------------------------------------------------------------------------
 total energy gain   :        -0.0109336 Eh       -6.8609 kcal/mol
 total RMSD          :         0.3976463 a0        0.2104 Å
 total power (kW/mol):        -1.3048197 (step)  -53.4452 (real)
------------------------------------------------------------------------

 ANCopt (total)                0 d,  0 h,  0 min,  0.537 sec
 optimizer setup                ...        0 min,  0.001 sec (  0.103%)
 model hessian                  ...        0 min,  0.006 sec (  1.088%)
 ANC generation                 ...        0 min,  0.001 sec (  0.257%)
 coordinate transformation      ...        0 min,  0.000 sec (  0.068%)
 single point calculation       ...        0 min,  0.518 sec ( 96.346%)
 optimization log               ...        0 min,  0.004 sec (  0.821%)
 hessian update                 ...        0 min,  0.000 sec (  0.066%)
 rational function              ...        0 min,  0.005 sec (  0.933%)

================
 final structure:
================
18
 xtb: 6.4.1 (afa7bdf)
C        -3.45203928943614   -0.20669272170640    0.15478426468241
C        -2.05468068683831    0.31285278147673    0.16377213832420
C        -0.89636248578676   -0.37083297471501    0.02859742826893
C         0.27955310598674    0.44230031633696    0.08546494034714
C         1.62296556551590   -0.05647601887325   -0.03254778445834
N         2.68077675478736    0.77286459542998   -0.00570396829691
N         3.72889699048982   -0.07915939407596   -0.14150275147456
C         3.46288565360486   -1.41590129784474   -0.25557663095293
C         2.05349230926993   -1.39116465888539   -0.18182390271189
C        -0.04371785014605    1.75452884266248    0.26782863703533
S        -1.75634913743460    2.01964627322356    0.37234781185485
H        -4.04108351720487    0.27747914682758   -0.62524321552968
H        -3.44646010359620   -1.28005540658622   -0.02577138159840
H        -3.94403176544881   -0.01541084708338    1.10978150594318
H        -0.86217558210360   -1.43817180130603   -0.11185110213493
H         4.65152149975810    0.33569434954549   -0.15044708192813
H         1.39691445440759   -2.25232182227982   -0.22896969068532
H         0.61989508417503    2.59081963785344    0.34831278331496
 
 Bond Distances (Angstroems)
 ---------------------------
C1-C2=1.4908         C1-H12=1.0908        C1-H13=1.0885        C1-H14=1.0912        C2-C1=1.4908         C2-C3=1.3518         
C2-S11=1.7452        C3-C2=1.3518         C3-C4=1.4308         C3-H15=1.0771        C4-C3=1.4308         C4-C5=1.4379         
C4-C10=1.3637        C5-C4=1.4379         C5-N6=1.3444         C5-C9=1.4103         N6-C5=1.3444         N6-N7=1.3576         
N7-N6=1.3576         N7-C8=1.3677         N7-H16=1.0116        C8-N7=1.3677         C8-C9=1.4115         C9-C5=1.4103         
C9-C8=1.4115         C9-H17=1.0839        C10-C4=1.3637        C10-S11=1.7362       C10-H18=1.0706       S11-C2=1.7452        
S11-C10=1.7362       H12-C1=1.0908        H13-C1=1.0885        H14-C1=1.0912        H15-C3=1.0771        H16-N7=1.0116        
H17-C9=1.0839        H18-C10=1.0706       
 C  H  Rav=1.0837 sigma=0.0076  Rmin=1.0706  Rmax=1.0912     6
 C  C  Rav=1.4138 sigma=0.0434  Rmin=1.3518  Rmax=1.4908     7
 N  H  Rav=1.0116 sigma=0.0000  Rmin=1.0116  Rmax=1.0116     1
 N  C  Rav=1.3561 sigma=0.0116  Rmin=1.3444  Rmax=1.3677     2
 N  N  Rav=1.3576 sigma=0.0000  Rmin=1.3576  Rmax=1.3576     1
 S  C  Rav=1.7407 sigma=0.0045  Rmin=1.7362  Rmax=1.7452     2
 
 selected bond angles (degree)
 --------------------
H12-C1-C2=110.84               H13-C1-C2=109.87               H13-C1-H12=108.78              H14-C1-C2=110.87               
H14-C1-H12=107.73              H14-C1-H13=108.68              C3-C2-C1=128.78                S11-C2-C1=120.12               
S11-C2-C3=111.11               C4-C3-C2=114.38                H15-C3-C2=122.78               H15-C3-C4=122.84               
C5-C4-C3=124.57                C10-C4-C3=110.94               C10-C4-C5=124.49               N6-C5-C4=121.30                
C9-C5-C4=128.48                C9-C5-N6=110.23                N7-N6-C5=102.61                C8-N7-N6=118.14                
H16-N7-N6=116.59               H16-N7-C8=125.27               C9-C8-N7= 99.95                C8-C9-C5=109.08                
H17-C9-C5=124.86               H17-C9-C8=126.06               S11-C10-C4=112.88              H18-C10-C4=127.93              
H18-C10-S11=119.18             
 
 selected dihedral angles (degree)
 ---------------------------------
C3-C2-C1-H12=237.37           C3-C2-C1-H13=357.62           C3-C2-C1-H14=117.77           S11-C2-C1-H12= 57.46          
S11-C2-C1-H13=177.71          S11-C2-C1-H14=297.86          C4-C3-C2-C1=180.05            C4-C3-C2-S11=359.97           
H15-C3-C2-C1=  0.15           H15-C3-C2-S11=180.07          C5-C4-C3-C2=179.96            C5-C4-C3-H15=359.86           
C10-C4-C3-C2=  0.00           C10-C4-C3-H15=179.91          N6-C5-C4-C3=178.18            N6-C5-C4-C10=358.12           
C9-C5-C4-C3=357.99            C9-C5-C4-C10=177.93           N7-N6-C5-C4=179.93            N7-N6-C5-C9=  0.09            
C8-N7-N6-C5=359.90            H16-N7-N6-C5=179.85           C9-C8-N7-N6=  0.07            C9-C8-N7-H16=180.12           
C8-C9-C5-C4=180.12            C8-C9-C5-N6=359.94            H17-C9-C5-C4=  0.00           H17-C9-C5-N6=179.83           
C5-C9-C8-N7=  0.00            H17-C9-C8-N7=180.11           S11-C10-C4-C3=  0.00          S11-C10-C4-C5=180.07          
H18-C10-C4-C3=180.02          H18-C10-C4-C5=  0.07          
           -------------------------------------------------
          |                Final Singlepoint                |
           -------------------------------------------------

          ...................................................
          :                      SETUP                      :
          :.................................................:
          :  # basis functions                  57          :
          :  # atomic orbitals                  56          :
          :  # shells                           30          :
          :  # electrons                        56          :
          :  max. iterations                   250          :
          :  Hamiltonian                  GFN2-xTB          :
          :  restarted?                      false          :
          :  GBSA solvation                  false          :
          :  PC potential                    false          :
          :  electronic temp.          300.0000000     K    :
          :  accuracy                    1.0000000          :
          :  -> integral cutoff          0.2500000E+02      :
          :  -> integral neglect         0.1000000E-07      :
          :  -> SCF convergence          0.1000000E-05 Eh   :
          :  -> wf. convergence          0.1000000E-03 e    :
          :  Broyden damping             0.4000000          :
          ...................................................

 iter      E             dE          RMSdq      gap      omega  full diag
   1    -30.3152030 -0.303152E+02  0.612E-05    0.55       0.0  T
   2    -30.3152030 -0.329692E-11  0.401E-05    0.55     587.4  T
   3    -30.3152030 -0.169713E-10  0.216E-05    0.55    1093.6  T

   *** convergence criteria satisfied after 3 iterations ***

         #    Occupation            Energy/Eh            Energy/eV
      -------------------------------------------------------------
         1        2.0000           -0.5925029             -16.1228
       ...           ...                  ...                  ...
        22        2.0000           -0.2611685              -7.1068
        23        2.0000           -0.2487924              -6.7700
        24        2.0000           -0.2448370              -6.6624
        25        2.0000           -0.1890226              -5.1436
        26        2.0000           -0.1850586              -5.0357
        27        2.0000           -0.1578537              -4.2954
        28        2.0000           -0.1224741              -3.3327 (HOMO)
        29        0.0000           -0.1021208              -2.7788 (LUMO)
        30                         -0.0728930              -1.9835
        31                         -0.0419730              -1.1421
        32                          0.0125947               0.3427
        33                          0.0332164               0.9039
       ...                                ...                  ...
        56                          0.8686646              23.6376
      -------------------------------------------------------------
                  HL-Gap            0.0203533 Eh            0.5538 eV
             Fermi-level           -0.1122974 Eh           -3.0558 eV
 
 localization/xTB-IFF output generation
 averaging CT terms over            1  occ. levels
 averaging CT terms over            1  virt. levels
 dipole moment from electron density (au)
     X       Y       Z   
  -3.4933   0.1488   0.0671  total (Debye):    8.889
cpu  time for init local    0.00 s
wall time for init local    0.00 s
 doing rotations ...
 initialization of trafo matrix to unity

 converged in     47 iterations, threshold :   0.99680078D-06
 doing transformations ...
 lmo centers(Z=2) and atoms on file <lmocent.coord>
 LMO Fii/eV  ncent    charge center   contributions...
    1 sigma -11.62   1.97  -5.22606   0.10205   0.30198    1C :  0.52    2C :  0.49
    2 sigma -11.44   1.94  -3.70120   2.25795   0.51802   11S :  0.59    2C :  0.41
    3 sigma -11.25   1.99  -7.10411  -0.14593   1.48228    1C :  0.51   14H :  0.49
    4 sigma -11.24   1.99  -7.22733   0.21857  -0.68061    1C :  0.51   12H :  0.49
    5 sigma -11.24   1.98  -6.50346  -1.72473   0.06709    1C :  0.51   13H :  0.50
    6 sigma -11.17   1.89  -1.77274   3.67792   0.62243   11S :  0.61   10C :  0.39
    7 sigma -10.78   1.98   6.09908   0.65725  -0.12288    7N :  0.53    6N :  0.47
    8 sigma -10.69   2.00  -0.56452   0.00259   0.09936    3C :  0.52    4C :  0.48
    9 LP    -10.47   1.14  -3.98421   4.76023  -1.62738   11S :  0.93
   10 LP    -10.45   1.15  -3.78468   4.13226   3.24254   11S :  0.93
   11 sigma -10.32   2.02  -1.66162  -2.03008  -0.12049    3C :  0.50   15H :  0.50
   12 sigma -10.24   1.99   8.15614   0.34492  -0.27564    7N :  0.53   16H :  0.47
   13 sigma -10.21   2.01   0.73465   4.37594   0.60945   10C :  0.50   18H :  0.50
   14 pi     -9.88   2.10  -2.72976  -0.07213   0.70826    2C :  0.50    3C :  0.48
   15 pi     -9.88   2.10  -2.77218   0.06328  -0.33470    2C :  0.50    3C :  0.48
   16 sigma  -9.82   2.02   1.71128   0.40215   0.05833    4C :  0.54    5C :  0.45
   17 pi     -9.24   2.17   0.15758   2.00025   0.84860   10C :  0.51    4C :  0.45
   18 pi     -9.23   2.17   0.11382   2.13263  -0.17665   10C :  0.51    4C :  0.45
   19 sigma  -8.65   2.01   3.36341  -1.37214  -0.04236    5C :  0.52    9C :  0.47
   20 pi     -8.42   1.76   6.83332  -0.94870   0.10659    7N :  0.70    8C :  0.28
   21 sigma  -8.26   1.99   3.00774  -3.77069  -0.40461   17H :  0.55    9C :  0.45
   22 pi     -8.13   2.10   4.20820   0.74050   0.41431    6N :  0.56    5C :  0.40
   23 pi     -8.12   2.11   4.17601   0.81983  -0.49328    6N :  0.56    5C :  0.40
   24 pi     -8.04   1.72   6.75134  -0.71612  -0.76333    7N :  0.72    8C :  0.24
   25 sigma  -7.84   1.99   5.13691  -2.70788  -0.34584    9C :  0.55    8C :  0.45
   26 LP     -6.20   1.02   5.27487   3.29316   0.15485    6N :  0.99
   27 delpi  -5.01   2.63   4.16447  -1.81264  -0.49390    9C :  0.56    5C :  0.19    8C :  0.17
   28 LP     -4.58   1.05   7.80832  -4.05269  -0.67880    8C :  0.98
 starting deloc pi regularization ...
 thr    2.20000000000000      # pi deloc LMO           5
 files:
 coordprot.0/xtbscreen.xyz/xtblmoinfo/lmocent.coord
 with protonation site input, xtbdock and
 LMO center info written
 

 SCC (total)                   0 d,  0 h,  0 min,  0.034 sec
 SCC setup                      ...        0 min,  0.000 sec (  0.456%)
 Dispersion                     ...        0 min,  0.000 sec (  0.356%)
 classical contributions        ...        0 min,  0.000 sec (  0.102%)
 integral evaluation            ...        0 min,  0.004 sec ( 12.927%)
 iterations                     ...        0 min,  0.004 sec ( 11.822%)
 molecular gradient             ...        0 min,  0.010 sec ( 27.967%)
 printout                       ...        0 min,  0.016 sec ( 46.241%)

         :::::::::::::::::::::::::::::::::::::::::::::::::::::
         ::                     SUMMARY                     ::
         :::::::::::::::::::::::::::::::::::::::::::::::::::::
         :: total energy             -29.899854746248 Eh    ::
         :: gradient norm              0.000440821138 Eh/a0 ::
         :: HOMO-LUMO gap              0.553840886578 eV    ::
         ::.................................................::
         :: SCC energy               -30.315203026228 Eh    ::
         :: -> isotropic ES            0.122164804185 Eh    ::
         :: -> anisotropic ES          0.003520965612 Eh    ::
         :: -> anisotropic XC          0.017614757955 Eh    ::
         :: -> dispersion             -0.018640539869 Eh    ::
         :: repulsion energy           0.415370731952 Eh    ::
         :: add. restraining           0.000000000000 Eh    ::
         :: total charge              -1.000000000000 e     ::
         :::::::::::::::::::::::::::::::::::::::::::::::::::::

           -------------------------------------------------
          |                Property Printout                |
           -------------------------------------------------

    * Orbital Energies and Occupations

         #    Occupation            Energy/Eh            Energy/eV
      -------------------------------------------------------------
         1        2.0000           -0.5925029             -16.1228
       ...           ...                  ...                  ...
        16        2.0000           -0.3308713              -9.0035
        17        2.0000           -0.3211294              -8.7384
        18        2.0000           -0.3177850              -8.6474
        19        2.0000           -0.3043284              -8.2812
        20        2.0000           -0.2928162              -7.9679
        21        2.0000           -0.2746673              -7.4741
        22        2.0000           -0.2611685              -7.1068
        23        2.0000           -0.2487924              -6.7700
        24        2.0000           -0.2448370              -6.6624
        25        2.0000           -0.1890226              -5.1436
        26        2.0000           -0.1850586              -5.0357
        27        2.0000           -0.1578537              -4.2954
        28        2.0000           -0.1224741              -3.3327 (HOMO)
        29        0.0000           -0.1021208              -2.7788 (LUMO)
        30                         -0.0728930              -1.9835
        31                         -0.0419730              -1.1421
        32                          0.0125947               0.3427
        33                          0.0332164               0.9039
        34                          0.0877549               2.3879
        35                          0.1225824               3.3356
        36                          0.1511012               4.1117
        37                          0.1653876               4.5004
        38                          0.2119778               5.7682
        39                          0.2375991               6.4654
       ...                                ...                  ...
        56                          0.8686646              23.6376
      -------------------------------------------------------------
                  HL-Gap            0.0203533 Eh            0.5538 eV
             Fermi-level           -0.1122974 Eh           -3.0558 eV

     #   Z          covCN         q      C6AA      α(0)
     1   6 C        3.774    -0.091    22.275     6.725
     2   6 C        2.973     0.019    27.588     8.616
     3   6 C        3.119    -0.056    29.219     8.853
     4   6 C        3.126    -0.007    27.990     8.663
     5   6 C        3.104     0.036    27.053     8.523
     6   7 N        1.949    -0.359    30.164     8.144
     7   7 N        3.068    -0.030    21.815     6.937
     8   6 C        1.960    -0.307    40.558    10.284
     9   6 C        3.073    -0.084    30.013     8.982
    10   6 C        2.945    -0.027    28.684     8.784
    11  16 S        2.291    -0.201   149.622    20.587
    12   1 H        0.924     0.030     2.589     2.516
    13   1 H        0.925     0.028     2.620     2.531
    14   1 H        0.924     0.029     2.595     2.519
    15   1 H        0.926     0.014     2.819     2.626
    16   1 H        0.860     0.073     2.064     2.250
    17   1 H        0.925    -0.088     5.155     3.550
    18   1 H        0.927     0.020     2.729     2.583

 Mol. C6AA /au·bohr⁶  :       5966.385381
 Mol. C8AA /au·bohr⁸  :     164621.715595
 Mol. α(0) /au        :        123.675359


Wiberg/Mayer (AO) data.
largest (>0.10) Wiberg bond orders for each atom

 ---------------------------------------------------------------------------
     #   Z sym  total        # sym  WBO       # sym  WBO       # sym  WBO
 ---------------------------------------------------------------------------
     1   6 C    3.998 --     2 C    1.029    13 H    0.983    12 H    0.977
                            14 H    0.976
     2   6 C    3.940 --     3 C    1.653    11 S    1.114     1 C    1.029
                            10 C    0.109
     3   6 C    3.985 --     2 C    1.653     4 C    1.187    15 H    0.962
     4   6 C    3.977 --    10 C    1.550     3 C    1.187     5 C    1.094
     5   6 C    3.958 --     6 N    1.371     9 C    1.319     4 C    1.094
     6   7 N    2.910 --     5 C    1.371     7 N    1.158     8 C    0.187
                             9 C    0.120
     7   7 N    3.549 --     8 C    1.273     6 N    1.158    16 H    0.964
     8   6 C    2.933 --     9 C    1.434     7 N    1.273     6 N    0.187
     9   6 C    3.949 --     8 C    1.434     5 C    1.319    17 H    0.966
                             6 N    0.120
    10   6 C    3.912 --     4 C    1.550    11 S    1.114    18 H    0.971
                             2 C    0.109
    11  16 S    2.504 --     2 C    1.114    10 C    1.114
    12   1 H    0.999 --     1 C    0.977
    13   1 H    0.999 --     1 C    0.983
    14   1 H    0.999 --     1 C    0.976
    15   1 H    1.000 --     3 C    0.962
    16   1 H    0.994 --     7 N    0.964
    17   1 H    0.992 --     9 C    0.966
    18   1 H    0.999 --    10 C    0.971
 ---------------------------------------------------------------------------

Topologies differ in total number of bonds
Writing topology from bond orders to xtbtopo.mol

molecular dipole:
                 x           y           z       tot (Debye)
 q only:       -3.176       0.168       0.059
   full:       -3.493       0.149       0.067       8.889
molecular quadrupole (traceless):
                xx          xy          yy          xz          yz          zz
 q only:      -17.257      11.558       2.938       2.302      -1.736      14.318
  q+dip:      -19.255      19.943       2.669       3.358      -2.375      16.586
   full:      -19.870      20.335       1.484       3.525      -2.722      18.387

           -------------------------------------------------
          |                Geometry Summary                 |
           -------------------------------------------------

      molecular mass/u    :      163.2196663
   center of mass at/Å    :        0.2418026       0.3767518       0.0794277
  moments of inertia/u·Å² :        0.1757384E+03   0.9406524E+03   0.1113176E+04
rotational constants/cm⁻¹ :        0.9592457E-01   0.1792121E-01   0.1514372E-01

 * 17 selected distances

     #   Z          #   Z                                           value/Å
     2   6 C        3   6 C                                       1.3518134
     3   6 C        4   6 C                                       1.4308030
     4   6 C        5   6 C                                       1.4378671
     5   6 C        6   7 N                                       1.3444296
     6   7 N        7   7 N                                       1.3575501
     7   7 N        8   6 C                                       1.3677185
     5   6 C        9   6 C                                       1.4103299
     4   6 C       10   6 C                                       1.3637098
     2   6 C       11  16 S                                       1.7451789 (max)
    10   6 C       11  16 S                                       1.7361790
     1   6 C       12   1 H                                       1.0907971
     1   6 C       13   1 H                                       1.0884571
     1   6 C       14   1 H                                       1.0911760
     3   6 C       15   1 H                                       1.0770825
     7   7 N       16   1 H                                       1.0116420 (min)
     9   6 C       17   1 H                                       1.0839321
    10   6 C       18   1 H                                       1.0706270

 * 6 distinct bonds (by element types)

   Z      Z             #   av. dist./Å        max./Å        min./Å
   1 H    6 C           6     1.0836786     1.0911760     1.0706270
   6 C    6 C           5     1.3989046     1.4378671     1.3518134
   1 H    7 N           1     1.0116420     1.0116420     1.0116420
   6 C    7 N           2     1.3560740     1.3677185     1.3444296
   7 N    7 N           1     1.3575501     1.3575501     1.3575501
   6 C   16 S           2     1.7406790     1.7451789     1.7361790


optimized geometry written to: xtbopt.xyz


           -------------------------------------------------
          | TOTAL ENERGY              -29.899854746248 Eh   |
          | GRADIENT NORM               0.000440821138 Eh/α |
          | HOMO-LUMO GAP               0.553840886578 eV   |
           -------------------------------------------------

------------------------------------------------------------------------
 * finished run on 2022/11/02 at 18:13:39.652     
------------------------------------------------------------------------
 total:
 * wall-time:     0 d,  0 h,  0 min,  0.680 sec
 *  cpu-time:     0 d,  0 h,  0 min,  0.648 sec
 * ratio c/w:     0.952 speedup
 SCF:
 * wall-time:     0 d,  0 h,  0 min,  0.057 sec
 *  cpu-time:     0 d,  0 h,  0 min,  0.051 sec
 * ratio c/w:     0.889 speedup
 ANC optimizer:
 * wall-time:     0 d,  0 h,  0 min,  0.576 sec
 *  cpu-time:     0 d,  0 h,  0 min,  0.569 sec
 * ratio c/w:     0.988 speedup

