      -----------------------------------------------------------      
     |                   =====================                   |     
     |                           x T B                           |     
     |                   =====================                   |     
     |                         S. Grimme                         |     
     |          Mulliken Center for Theoretical Chemistry        |     
     |                    University of Bonn                     |     
      -----------------------------------------------------------      

   * xtb version 6.4.1 (afa7bdf) compiled by 'ehlert@majestix' on 2021-06-10

   xtb is free software: you can redistribute it and/or modify it under
   the terms of the GNU Lesser General Public License as published by
   the Free Software Foundation, either version 3 of the License, or
   (at your option) any later version.
   
   xtb is distributed in the hope that it will be useful,
   but WITHOUT ANY WARRANTY; without even the implied warranty of
   MERCHANTABILITY or FITNESS FOR A PARTICULAR PURPOSE.  See the
   GNU Lesser General Public License for more details.
   
   Cite this work as:
   * C. Bannwarth, E. Caldeweyher, S. Ehlert, A. Hansen, P. Pracht,
     J. Seibert, S. Spicher, S. Grimme, WIREs Comput. Mol. Sci., 2020, 11,
     e01493. DOI: 10.1002/wcms.1493
   
   for GFN2-xTB:
   * C. Bannwarth, S. Ehlert and S. Grimme., J. Chem. Theory Comput., 2019,
     15, 1652-1671. DOI: 10.1021/acs.jctc.8b01176
   for GFN1-xTB:
   * S. Grimme, C. Bannwarth, P. Shushkov, J. Chem. Theory Comput., 2017,
     13, 1989-2009. DOI: 10.1021/acs.jctc.7b00118
   for GFN0-xTB:
   * P. Pracht, E. Caldeweyher, S. Ehlert, S. Grimme, ChemRxiv, 2019, preprint.
     DOI: 10.26434/chemrxiv.8326202.v1
   for GFN-FF:
   * S. Spicher and S. Grimme, Angew. Chem. Int. Ed., 2020, 59, 15665-15673.
     DOI: 10.1002/anie.202004239
   
   for DFT-D4:
   * E. Caldeweyher, C. Bannwarth and S. Grimme, J. Chem. Phys., 2017,
     147, 034112. DOI: 10.1063/1.4993215
   * E. Caldeweyher, S. Ehlert, A. Hansen, H. Neugebauer, S. Spicher,
     C. Bannwarth and S. Grimme, J. Chem. Phys., 2019, 150, 154122.
     DOI: 10.1063/1.5090222
   * E. Caldeweyher, J.-M. Mewes, S. Ehlert and S. Grimme, Phys. Chem. Chem. Phys.
     2020, 22, 8499-8512. DOI: 10.1039/D0CP00502A
   
   for sTDA-xTB:
   * S. Grimme and C. Bannwarth, J. Chem. Phys., 2016, 145, 054103.
     DOI: 10.1063/1.4959605
   
   in the mass-spec context:
   * V. Asgeirsson, C. Bauer and S. Grimme, Chem. Sci., 2017, 8, 4879.
     DOI: 10.1039/c7sc00601b
   * J. Koopman and S. Grimme, ACS Omega 2019, 4, 12, 15120-15133.
     DOI: 10.1021/acsomega.9b02011
   
   for metadynamics refer to:
   * S. Grimme, J. Chem. Theory Comput., 2019, 155, 2847-2862
     DOI: 10.1021/acs.jctc.9b00143
   
   for SPH calculations refer to:
   * S. Spicher and S. Grimme, J. Chem. Theory Comput., 2021, 17, 1701-1714
     DOI: 10.1021/acs.jctc.0c01306
   
   with help from (in alphabetical order)
   P. Atkinson, C. Bannwarth, F. Bohle, G. Brandenburg, E. Caldeweyher
   M. Checinski, S. Dohm, S. Ehlert, S. Ehrlich, I. Gerasimov, J. Koopman
   C. Lavigne, S. Lehtola, F. März, M. Müller, F. Musil, H. Neugebauer
   J. Pisarek, C. Plett, P. Pracht, J. Seibert, P. Shushkov, S. Spicher
   M. Stahn, M. Steiner, T. Strunk, J. Stückrath, T. Rose, and J. Unsleber
   
 * started run on 2022/11/02 at 18:13:38.968     

           -------------------------------------------------
          |                Calculation Setup                |
           -------------------------------------------------

          program call               : /lustre/hpc/kemi/borup/pKalculator/dep/xtb-6.4.1/bin/xtb --gfn 2 /lustre/hpc/kemi/borup/pKalculator/calc/test#-1=11/conf06/test#-1=11_conf06_gfn2.xyz --opt --lmo --chrg -1 --uhf 0
          hostname                   : fend01.cluster
          coordinate file            : /lustre/hpc/kemi/borup/pKalculator/calc/test#-1=11/conf06/test#-1=11_conf06_gfn2.xyz
          omp threads                :                     1
          number of atoms            :                    18
          number of electrons        :                    56
          charge                     :                    -1
          spin                       :                   0.0
          first test random number   :      0.52107868077778

   ID    Z sym.   atoms
    1    6 C      1-5, 8-10
    2    7 N      6, 7
    3   16 S      11
    4    1 H      12-18

           -------------------------------------------------
          |                 G F N 2 - x T B                 |
           -------------------------------------------------

        Reference                      10.1021/acs.jctc.8b01176
      * Hamiltonian:
        H0-scaling (s, p, d)           1.850000    2.230000    2.230000
        zeta-weighting                 0.500000
      * Dispersion:
        s8                             2.700000
        a1                             0.520000
        a2                             5.000000
        s9                             5.000000
      * Repulsion:
        kExp                           1.500000    1.000000
        rExp                           1.000000
      * Coulomb:
        alpha                          2.000000
        third order                    shell-resolved
        anisotropic                    true
        a3                             3.000000
        a5                             4.000000
        cn-shift                       1.200000
        cn-exp                         4.000000
        max-rad                        5.000000


          ...................................................
          :                      SETUP                      :
          :.................................................:
          :  # basis functions                  57          :
          :  # atomic orbitals                  56          :
          :  # shells                           30          :
          :  # electrons                        56          :
          :  max. iterations                   250          :
          :  Hamiltonian                  GFN2-xTB          :
          :  restarted?                      false          :
          :  GBSA solvation                  false          :
          :  PC potential                    false          :
          :  electronic temp.          300.0000000     K    :
          :  accuracy                    1.0000000          :
          :  -> integral cutoff          0.2500000E+02      :
          :  -> integral neglect         0.1000000E-07      :
          :  -> SCF convergence          0.1000000E-05 Eh   :
          :  -> wf. convergence          0.1000000E-03 e    :
          :  Broyden damping             0.4000000          :
          ...................................................

 iter      E             dE          RMSdq      gap      omega  full diag
   1    -30.1635226 -0.301635E+02  0.432E+00    2.94       0.0  T
   2    -29.0460256  0.111750E+01  0.642E+00    0.51       1.0  T
   3    -30.2187313 -0.117271E+01  0.284E+00    3.36       1.0  T
   4    -30.2666470 -0.479156E-01  0.181E+00    2.31       1.0  T
   5    -30.2807798 -0.141328E-01  0.132E+00    2.00       1.0  T
   6    -30.2932808 -0.125010E-01  0.974E-01    1.47       1.0  T
   7    -30.3002709 -0.699008E-02  0.711E-01    1.05       1.0  T
   8    -30.3049582 -0.468728E-02  0.422E-01    0.63       1.0  T
   9    -30.3070678 -0.210964E-02  0.238E-01    0.33       1.0  T
  10    -30.2872428  0.198250E-01  0.842E-01    0.09       1.0  T
  11    -30.3065659 -0.193231E-01  0.258E-01    0.42       1.0  T
  12    -30.3070019 -0.435983E-03  0.212E-01    0.35       1.0  T
  13    -30.3075805 -0.578582E-03  0.138E-01    0.27       1.0  T
  14    -30.3080446 -0.464135E-03  0.325E-02    0.21       1.0  T
  15    -30.3080703 -0.256522E-04  0.827E-03    0.19       2.8  T
  16    -30.3080687  0.160929E-05  0.111E-02    0.20       2.1  T
  17    -30.3080718 -0.311015E-05  0.325E-03    0.20       7.2  T
  18    -30.3080721 -0.285922E-06  0.441E-04    0.20      53.5  T
  19    -30.3080721 -0.213953E-08  0.335E-04    0.20      70.3  T

   *** convergence criteria satisfied after 19 iterations ***

         #    Occupation            Energy/Eh            Energy/eV
      -------------------------------------------------------------
         1        2.0000           -0.5909153             -16.0796
       ...           ...                  ...                  ...
        22        2.0000           -0.2576934              -7.0122
        23        2.0000           -0.2475319              -6.7357
        24        2.0000           -0.2461226              -6.6973
        25        2.0000           -0.1883788              -5.1260
        26        2.0000           -0.1825266              -4.9668
        27        2.0000           -0.1636330              -4.4527
        28        1.9566           -0.1073169              -2.9202 (HOMO)
        29        0.0434           -0.1000825              -2.7234 (LUMO)
        30                         -0.0718955              -1.9564
        31                         -0.0407648              -1.1093
        32                          0.0062242               0.1694
        33                          0.0418349               1.1384
       ...                                ...                  ...
        56                          0.8928887              24.2967
      -------------------------------------------------------------
                  HL-Gap            0.0072344 Eh            0.1969 eV
             Fermi-level           -0.1036997 Eh           -2.8218 eV
 
 localization/xTB-IFF output generation
 averaging CT terms over            1  occ. levels
 averaging CT terms over            1  virt. levels
 dipole moment from electron density (au)
     X       Y       Z   
   3.4904   1.1735  -0.3485  total (Debye):    9.402
cpu  time for init local    0.00 s
wall time for init local    0.00 s
 doing rotations ...
 initialization of trafo matrix to unity
iteration     50  convergence  0.12717307D-04

 converged in     67 iterations, threshold :   0.99677475D-06
 doing transformations ...
 lmo centers(Z=2) and atoms on file <lmocent.coord>
 LMO Fii/eV  ncent    charge center   contributions...
    1 sigma -11.59   1.97   5.15280   1.07874  -0.78168    1C :  0.52    2C :  0.49
    2 sigma -11.39   1.94   3.95170  -1.22550  -1.49559   11S :  0.59    2C :  0.41
    3 sigma -11.21   2.00   6.47344   2.46063  -1.92551    1C :  0.51   12H :  0.49
    4 sigma -11.18   1.98   7.36163   1.05863  -0.47376    1C :  0.51   14H :  0.50
    5 sigma -11.17   1.98   6.20567   2.79714   0.23605    1C :  0.51   13H :  0.50
    6 sigma -11.17   1.90   2.20849  -2.90580  -1.80827   11S :  0.61   10C :  0.40
    7 sigma -11.00   1.97  -5.03930   1.51721   1.90376    7N :  0.53    6N :  0.47
    8 sigma -10.49   2.00   0.64462   0.20799  -0.06549    3C :  0.52    4C :  0.48
    9 LP    -10.42   1.14   4.91064  -4.17296  -0.26180   11S :  0.94
   10 LP    -10.40   1.15   3.83415  -2.23987  -4.66605   11S :  0.93
   11 sigma -10.30   2.01  -0.19202  -4.00317  -1.70245   10C :  0.50   18H :  0.50
   12 sigma -10.24   1.99  -6.97678   2.08308   2.62880    7N :  0.53   16H :  0.47
   13 sigma -10.09   2.02   1.45670   2.27063   0.63818    3C :  0.50   15H :  0.49
   14 pi     -9.73   2.11   2.88356   0.43654   0.07713    2C :  0.50    3C :  0.48
   15 pi     -9.72   2.11   2.65614   0.84607  -0.85783    2C :  0.49    3C :  0.48
   16 sigma  -9.62   2.02  -1.54512  -0.57366   0.12877    4C :  0.55    5C :  0.45
   17 sigma  -9.36   1.82  -6.62374   0.29547   1.75202    7N :  0.65    8C :  0.36
   18 pi     -9.20   2.16   0.30286  -2.01361  -0.37473   10C :  0.51    4C :  0.45
   19 pi     -9.20   2.16   0.07591  -1.61126  -1.29859   10C :  0.51    4C :  0.45
   20 sigma  -8.39   1.97  -3.86355  -1.29081   0.37726    5C :  0.54    9C :  0.47
   21 pi     -8.22   2.16  -3.44458   0.89118   0.71714    6N :  0.52    5C :  0.44
   22 pi     -8.21   2.16  -3.24089   0.52358   1.54845    6N :  0.52    5C :  0.44
   23 sigma  -8.17   1.99  -4.91118  -3.43791  -0.31223   17H :  0.55    9C :  0.45
   24 pi     -7.04   1.57  -5.90498   1.03546   1.90656    7N :  0.79    6N :  0.10    8C :  0.08
   25 delpi  -6.59   2.24  -5.74399  -1.35714   0.27224    9C :  0.56    8C :  0.37
   26 delpi  -6.54   2.26  -5.52652  -1.73261   1.12868    9C :  0.55    8C :  0.36
   27 LP     -6.30   1.02  -2.96058   3.31715   2.19019    6N :  0.99
   28 LP     -4.15   1.05  -8.99065  -1.61751   1.48888    8C :  0.98
 starting deloc pi regularization ...
 thr    2.20000000000000      # pi deloc LMO           5
 files:
 coordprot.0/xtbscreen.xyz/xtblmoinfo/lmocent.coord
 with protonation site input, xtbdock and
 LMO center info written
 

 SCC (total)                   0 d,  0 h,  0 min,  0.057 sec
 SCC setup                      ...        0 min,  0.000 sec (  0.556%)
 Dispersion                     ...        0 min,  0.000 sec (  0.425%)
 classical contributions        ...        0 min,  0.000 sec (  0.118%)
 integral evaluation            ...        0 min,  0.005 sec (  8.364%)
 iterations                     ...        0 min,  0.022 sec ( 39.129%)
 molecular gradient             ...        0 min,  0.010 sec ( 17.021%)
 printout                       ...        0 min,  0.019 sec ( 34.293%)

         :::::::::::::::::::::::::::::::::::::::::::::::::::::
         ::                     SUMMARY                     ::
         :::::::::::::::::::::::::::::::::::::::::::::::::::::
         :: total energy             -29.888251121816 Eh    ::
         :: gradient norm              0.117959295574 Eh/a0 ::
         :: HOMO-LUMO gap              0.196858057097 eV    ::
         ::.................................................::
         :: SCC energy               -30.308072071140 Eh    ::
         :: -> isotropic ES            0.122715381240 Eh    ::
         :: -> anisotropic ES          0.003765519558 Eh    ::
         :: -> anisotropic XC          0.017783659498 Eh    ::
         :: -> dispersion             -0.018560914226 Eh    ::
         :: repulsion energy           0.419849918381 Eh    ::
         :: add. restraining           0.000000000000 Eh    ::
         :: total charge              -1.000000000000 e     ::
         :::::::::::::::::::::::::::::::::::::::::::::::::::::

      ----------------------------------------------------------- 
     |                   =====================                   |
     |                        A N C O P T                        |
     |                   =====================                   |
     |               Approximate Normal Coordinate               |
     |                Rational Function Optimizer                |
      ----------------------------------------------------------- 

          ...................................................
          :                      SETUP                      :
          :.................................................:
          :   optimization level            normal          :
          :   max. optcycles                   200          :
          :   ANC micro-cycles                  20          :
          :   degrees of freedom                48          :
          :.................................................:
          :   RF solver                   davidson          :
          :   write xtbopt.log                true          :
          :   linear?                        false          :
          :   energy convergence         0.5000000E-05 Eh   :
          :   grad. convergence          0.1000000E-02 Eh/α :
          :   maximium RF displ.         1.0000000          :
          :   Hlow (freq-cutoff)         0.1000000E-01      :
          :   Hmax (freq-cutoff)         5.0000000          :
          :   S6 in model hess.         20.0000000          :
          ...................................................

generating ANC from model Hessian ...
Using Lindh-Hessian (1995)
 Shifting diagonal of input Hessian by   7.905497196878303E-003
 Lowest  eigenvalues of input Hessian
    0.000000    0.000000    0.000000    0.000000    0.000000    0.000000
    0.010000    0.011078    0.012923    0.015425    0.020505    0.024795
    0.029419    0.040041    0.041572    0.042706    0.051576    0.060862
 Highest eigenvalues
    1.702674    1.731594    1.845333    1.898849    1.942918    2.034680
 

........................................................................
.............................. CYCLE    1 ..............................
........................................................................
   1    -30.3080721 -0.303081E+02  0.372E-04    0.20       0.0  T
   2    -30.3080720  0.888039E-07  0.169E-03    0.20      13.9  T
   3    -30.3080721 -0.922591E-07  0.119E-04    0.20     198.5  T
   4    -30.3080721 -0.274660E-09  0.549E-05    0.20     429.4  T
     SCC iter.                  ...        0 min,  0.005 sec
     gradient                   ...        0 min,  0.010 sec
 * total energy  :   -29.8882511 Eh     change       -0.2955389E-08 Eh
   gradient norm :     0.1179532 Eh/α   predicted     0.0000000E+00 (-100.00%)
   displ. norm   :     0.1932000 α      lambda       -0.1306989E-01
   maximum displ.:     0.0787180 α      in ANC's #9, #22, #14, ...

........................................................................
.............................. CYCLE    2 ..............................
........................................................................
   1    -30.3120093 -0.303120E+02  0.330E-01    0.46       0.0  T
   2    -30.3122995 -0.290177E-03  0.211E-01    0.27       1.0  T
   3    -30.3122752  0.242826E-04  0.107E-01    0.37       1.0  T
   4    -30.3123983 -0.123061E-03  0.503E-02    0.28       1.0  T
   5    -30.3124259 -0.276044E-04  0.176E-02    0.31       1.3  T
   6    -30.3124267 -0.826415E-06  0.112E-02    0.30       2.1  T
   7    -30.3124273 -0.596053E-06  0.518E-03    0.30       4.6  T
   8    -30.3124275 -0.204026E-06  0.203E-03    0.31      11.6  T
   9    -30.3124276 -0.489336E-07  0.860E-04    0.31      27.4  T
  10    -30.3124276 -0.235012E-08  0.210E-04    0.31     112.0  T
     SCC iter.                  ...        0 min,  0.012 sec
     gradient                   ...        0 min,  0.010 sec
 * total energy  :   -29.8972091 Eh     change       -0.8957931E-02 Eh
   gradient norm :     0.0482511 Eh/α   predicted    -0.6778866E-02 ( -24.33%)
   displ. norm   :     0.1774630 α      lambda       -0.3814412E-02
   maximum displ.:     0.1046908 α      in ANC's #9, #7, #27, ...

........................................................................
.............................. CYCLE    3 ..............................
........................................................................
   1    -30.3142153 -0.303142E+02  0.218E-01    0.48       0.0  T
   2    -30.3142849 -0.695203E-04  0.116E-01    0.51       1.0  T
   3    -30.3142904 -0.555780E-05  0.817E-02    0.48       1.0  T
   4    -30.3143314 -0.410136E-04  0.175E-02    0.50       1.4  T
   5    -30.3143319 -0.448731E-06  0.115E-02    0.50       2.1  T
   6    -30.3143326 -0.696600E-06  0.507E-03    0.50       4.6  T
   7    -30.3143328 -0.191746E-06  0.211E-03    0.50      11.2  T
   8    -30.3143328 -0.956567E-08  0.952E-04    0.50      24.8  T
   9    -30.3143328 -0.705354E-08  0.339E-04    0.50      69.5  T
     SCC iter.                  ...        0 min,  0.010 sec
     gradient                   ...        0 min,  0.010 sec
 * total energy  :   -29.8993515 Eh     change       -0.2142446E-02 Eh
   gradient norm :     0.0116709 Eh/α   predicted    -0.1967271E-02 (  -8.18%)
   displ. norm   :     0.0893455 α      lambda       -0.2903242E-03
   maximum displ.:     0.0586878 α      in ANC's #7, #3, #9, ...

........................................................................
.............................. CYCLE    4 ..............................
........................................................................
   1    -30.3136914 -0.303137E+02  0.553E-02    0.51       0.0  T
   2    -30.3136962 -0.476883E-05  0.288E-02    0.53       1.0  T
   3    -30.3136954  0.780066E-06  0.195E-02    0.52       1.2  T
   4    -30.3136985 -0.311518E-05  0.543E-03    0.52       4.3  T
   5    -30.3136987 -0.222050E-06  0.235E-03    0.52      10.0  T
   6    -30.3136988 -0.462738E-07  0.114E-03    0.52      20.6  T
   7    -30.3136988 -0.412501E-08  0.513E-04    0.52      46.0  T
   8    -30.3136988 -0.245347E-08  0.231E-04    0.52     102.2  T
     SCC iter.                  ...        0 min,  0.010 sec
     gradient                   ...        0 min,  0.010 sec
 * total energy  :   -29.8995588 Eh     change       -0.2072481E-03 Eh
   gradient norm :     0.0062349 Eh/α   predicted    -0.1463193E-03 ( -29.40%)
   displ. norm   :     0.1085789 α      lambda       -0.1629745E-03
   maximum displ.:     0.0773890 α      in ANC's #3, #7, #4, ...

........................................................................
.............................. CYCLE    5 ..............................
........................................................................
   1    -30.3134835 -0.303135E+02  0.517E-02    0.52       0.0  T
   2    -30.3134884 -0.495546E-05  0.279E-02    0.52       1.0  T
   3    -30.3134877  0.744771E-06  0.176E-02    0.52       1.3  T
   4    -30.3134896 -0.196537E-05  0.648E-03    0.52       3.6  T
   5    -30.3134901 -0.460435E-06  0.207E-03    0.52      11.4  T
   6    -30.3134901 -0.377656E-07  0.882E-04    0.52      26.7  T
   7    -30.3134901 -0.108446E-08  0.377E-04    0.52      62.5  T
     SCC iter.                  ...        0 min,  0.008 sec
     gradient                   ...        0 min,  0.010 sec
 * total energy  :   -29.8996596 Eh     change       -0.1008562E-03 Eh
   gradient norm :     0.0034358 Eh/α   predicted    -0.8244986E-04 ( -18.25%)
   displ. norm   :     0.0661536 α      lambda       -0.4004424E-04
   maximum displ.:     0.0549669 α      in ANC's #3, #7, #4, ...

........................................................................
.............................. CYCLE    6 ..............................
........................................................................
   1    -30.3139019 -0.303139E+02  0.240E-02    0.52       0.0  T
   2    -30.3139026 -0.688772E-06  0.140E-02    0.52       1.7  T
   3    -30.3139023  0.311219E-06  0.100E-02    0.52       2.4  T
   4    -30.3139032 -0.903860E-06  0.269E-03    0.52       8.8  T
   5    -30.3139032 -0.670254E-07  0.102E-03    0.52      23.0  T
   6    -30.3139032 -0.658662E-08  0.511E-04    0.52      46.1  T
   7    -30.3139032 -0.489624E-09  0.231E-04    0.52     101.9  T
     SCC iter.                  ...        0 min,  0.008 sec
     gradient                   ...        0 min,  0.010 sec
 * total energy  :   -29.8996893 Eh     change       -0.2968147E-04 Eh
   gradient norm :     0.0025266 Eh/α   predicted    -0.2011028E-04 ( -32.25%)
   displ. norm   :     0.0651902 α      lambda       -0.2943312E-04
   maximum displ.:     0.0521724 α      in ANC's #3, #4, #5, ...

........................................................................
.............................. CYCLE    7 ..............................
........................................................................
   1    -30.3144517 -0.303145E+02  0.212E-02    0.51       0.0  T
   2    -30.3144520 -0.246628E-06  0.133E-02    0.51       1.8  T
   3    -30.3144517  0.245445E-06  0.943E-03    0.52       2.5  T
   4    -30.3144527 -0.983932E-06  0.181E-03    0.52      13.0  T
   5    -30.3144527 -0.146005E-07  0.951E-04    0.51      24.8  T
   6    -30.3144527 -0.740547E-08  0.445E-04    0.52      52.9  T
     SCC iter.                  ...        0 min,  0.007 sec
     gradient                   ...        0 min,  0.010 sec
 * total energy  :   -29.8997114 Eh     change       -0.2207462E-04 Eh
   gradient norm :     0.0015248 Eh/α   predicted    -0.1477845E-04 ( -33.05%)
   displ. norm   :     0.1060754 α      lambda       -0.2121118E-04
   maximum displ.:     0.0754909 α      in ANC's #3, #4, #5, ...

........................................................................
.............................. CYCLE    8 ..............................
........................................................................
   1    -30.3147909 -0.303148E+02  0.327E-02    0.51       0.0  T
   2    -30.3147914 -0.593143E-06  0.207E-02    0.51       1.1  T
   3    -30.3147903  0.113432E-05  0.142E-02    0.52       1.7  T
   4    -30.3147928 -0.253577E-05  0.265E-03    0.52       8.9  T
   5    -30.3147929 -0.398500E-07  0.128E-03    0.52      18.4  T
   6    -30.3147929 -0.122350E-07  0.602E-04    0.52      39.1  T
   7    -30.3147929 -0.306184E-08  0.211E-04    0.52     111.9  T
     SCC iter.                  ...        0 min,  0.008 sec
     gradient                   ...        0 min,  0.010 sec
 * total energy  :   -29.8997313 Eh     change       -0.1989885E-04 Eh
   gradient norm :     0.0021194 Eh/α   predicted    -0.1065986E-04 ( -46.43%)
   displ. norm   :     0.0491992 α      lambda       -0.1114310E-04
   maximum displ.:     0.0290294 α      in ANC's #4, #3, #5, ...

........................................................................
.............................. CYCLE    9 ..............................
........................................................................
   1    -30.3147142 -0.303147E+02  0.148E-02    0.52       0.0  T
   2    -30.3147143 -0.782602E-07  0.893E-03    0.52       2.6  T
   3    -30.3147139  0.401942E-06  0.567E-03    0.52       4.2  T
   4    -30.3147144 -0.494927E-06  0.104E-03    0.52      22.7  T
   5    -30.3147144 -0.575898E-08  0.497E-04    0.52      47.5  T
   6    -30.3147144 -0.116556E-08  0.236E-04    0.52      99.8  T
     SCC iter.                  ...        0 min,  0.007 sec
     gradient                   ...        0 min,  0.010 sec
 * total energy  :   -29.8997408 Eh     change       -0.9557506E-05 Eh
   gradient norm :     0.0017979 Eh/α   predicted    -0.5587104E-05 ( -41.54%)
   displ. norm   :     0.2086920 α      lambda       -0.2892609E-04
   maximum displ.:     0.1326154 α      in ANC's #4, #5, #3, ...

........................................................................
.............................. CYCLE   10 ..............................
........................................................................
   1    -30.3138203 -0.303138E+02  0.621E-02    0.52       0.0  T
   2    -30.3138211 -0.783902E-06  0.368E-02    0.53       1.0  T
   3    -30.3138159  0.519801E-05  0.190E-02    0.53       1.2  T
   4    -30.3138218 -0.591740E-05  0.363E-03    0.53       6.5  T
   5    -30.3138219 -0.402528E-07  0.177E-03    0.53      13.3  T
   6    -30.3138219 -0.135508E-07  0.828E-04    0.53      28.5  T
   7    -30.3138219 -0.724438E-08  0.284E-04    0.53      83.1  T
     SCC iter.                  ...        0 min,  0.008 sec
     gradient                   ...        0 min,  0.010 sec
 * total energy  :   -29.8997574 Eh     change       -0.1662067E-04 Eh
   gradient norm :     0.0027560 Eh/α   predicted    -0.1474304E-04 ( -11.30%)
   displ. norm   :     0.0267472 α      lambda       -0.1694274E-04
   maximum displ.:     0.0252555 α      in ANC's #3, #4, #5, ...

........................................................................
.............................. CYCLE   11 ..............................
........................................................................
   1    -30.3143939 -0.303144E+02  0.108E-02    0.53       0.0  T
   2    -30.3143941 -0.173397E-06  0.637E-03    0.53       3.7  T
   3    -30.3143940  0.929730E-07  0.431E-03    0.53       5.5  T
   4    -30.3143942 -0.191749E-06  0.127E-03    0.53      18.5  T
   5    -30.3143942 -0.133739E-07  0.455E-04    0.53      51.8  T
   6    -30.3143942 -0.111542E-08  0.224E-04    0.53     105.3  T
     SCC iter.                  ...        0 min,  0.007 sec
     gradient                   ...        0 min,  0.010 sec
 * total energy  :   -29.8997697 Eh     change       -0.1221679E-04 Eh
   gradient norm :     0.0015521 Eh/α   predicted    -0.8476173E-05 ( -30.62%)
   displ. norm   :     0.0946028 α      lambda       -0.1988299E-04
   maximum displ.:     0.0590117 α      in ANC's #4, #5, #2, ...

........................................................................
.............................. CYCLE   12 ..............................
........................................................................
   1    -30.3148390 -0.303148E+02  0.273E-02    0.53       0.0  T
   2    -30.3148396 -0.555760E-06  0.161E-02    0.52       1.5  T
   3    -30.3148389  0.606876E-06  0.855E-03    0.52       2.8  T
   4    -30.3148397 -0.788315E-06  0.240E-03    0.52       9.8  T
   5    -30.3148398 -0.704244E-07  0.845E-04    0.52      27.9  T
   6    -30.3148398 -0.544132E-08  0.356E-04    0.52      66.2  T
     SCC iter.                  ...        0 min,  0.007 sec
     gradient                   ...        0 min,  0.010 sec
 * total energy  :   -29.8997932 Eh     change       -0.2355316E-04 Eh
   gradient norm :     0.0014803 Eh/α   predicted    -0.9983077E-05 ( -57.61%)
   displ. norm   :     0.3272962 α      lambda       -0.4369593E-04
   maximum displ.:     0.2183854 α      in ANC's #4, #5, #2, ...

........................................................................
.............................. CYCLE   13 ..............................
........................................................................
   1    -30.3128956 -0.303129E+02  0.928E-02    0.52       0.0  T
   2    -30.3128982 -0.259785E-05  0.542E-02    0.52       1.0  T
   3    -30.3128960  0.223110E-05  0.148E-02    0.52       1.6  T
   4    -30.3128985 -0.252640E-05  0.532E-03    0.52       4.4  T
   5    -30.3128988 -0.269283E-06  0.234E-03    0.52      10.1  T
   6    -30.3128988 -0.348526E-07  0.101E-03    0.52      23.3  T
   7    -30.3128988 -0.920753E-08  0.376E-04    0.52      62.7  T
   8    -30.3128988 -0.864322E-09  0.183E-04    0.52     128.7  T
     SCC iter.                  ...        0 min,  0.009 sec
     gradient                   ...        0 min,  0.010 sec
 * total energy  :   -29.8997945 Eh     change       -0.1257097E-05 Eh
   gradient norm :     0.0063602 Eh/α   predicted    -0.2289169E-04 (1721.00%)
   displ. norm   :     0.1178745 α      lambda       -0.7497929E-04
   maximum displ.:     0.0801865 α      in ANC's #4, #5, #2, ...

........................................................................
.............................. CYCLE   14 ..............................
........................................................................
   1    -30.3143582 -0.303144E+02  0.381E-02    0.52       0.0  T
   2    -30.3143591 -0.894816E-06  0.218E-02    0.52       1.1  T
   3    -30.3143588  0.328415E-06  0.764E-03    0.52       3.1  T
   4    -30.3143592 -0.452101E-06  0.239E-03    0.52       9.8  T
   5    -30.3143593 -0.373230E-07  0.113E-03    0.52      20.8  T
   6    -30.3143593 -0.477003E-08  0.621E-04    0.52      37.9  T
   7    -30.3143593 -0.411324E-08  0.150E-04    0.52     156.8  T
     SCC iter.                  ...        0 min,  0.008 sec
     gradient                   ...        0 min,  0.010 sec
 * total energy  :   -29.8998290 Eh     change       -0.3456945E-04 Eh
   gradient norm :     0.0019731 Eh/α   predicted    -0.3800896E-04 (   9.95%)
   displ. norm   :     0.0545038 α      lambda       -0.8579862E-05
   maximum displ.:     0.0328710 α      in ANC's #4, #5, #2, ...

........................................................................
.............................. CYCLE   15 ..............................
........................................................................
   1    -30.3145304 -0.303145E+02  0.163E-02    0.52       0.0  T
   2    -30.3145306 -0.210735E-06  0.975E-03    0.52       2.4  T
   3    -30.3145305  0.186867E-06  0.560E-03    0.52       4.2  T
   4    -30.3145307 -0.273905E-06  0.151E-03    0.52      15.6  T
   5    -30.3145308 -0.293899E-07  0.556E-04    0.52      42.4  T
   6    -30.3145308 -0.238812E-08  0.197E-04    0.52     119.3  T
     SCC iter.                  ...        0 min,  0.007 sec
     gradient                   ...        0 min,  0.010 sec
 * total energy  :   -29.8998392 Eh     change       -0.1016351E-04 Eh
   gradient norm :     0.0009031 Eh/α   predicted    -0.4294862E-05 ( -57.74%)
   displ. norm   :     0.1538235 α      lambda       -0.1270484E-04
   maximum displ.:     0.0997688 α      in ANC's #4, #5, #2, ...

........................................................................
.............................. CYCLE   16 ..............................
........................................................................
   1    -30.3140749 -0.303141E+02  0.429E-02    0.52       0.0  T
   2    -30.3140755 -0.564760E-06  0.255E-02    0.52       1.0  T
   3    -30.3140737  0.176169E-05  0.125E-02    0.52       1.9  T
   4    -30.3140757 -0.200272E-05  0.293E-03    0.52       8.1  T
   5    -30.3140758 -0.971857E-07  0.114E-03    0.52      20.6  T
   6    -30.3140758 -0.826928E-08  0.400E-04    0.52      58.9  T
   7    -30.3140758 -0.689035E-09  0.130E-04    0.52     181.0  T
     SCC iter.                  ...        0 min,  0.008 sec
     gradient                   ...        0 min,  0.010 sec
 * total energy  :   -29.8998488 Eh     change       -0.9593064E-05 Eh
   gradient norm :     0.0019432 Eh/α   predicted    -0.6418791E-05 ( -33.09%)
   displ. norm   :     0.0082778 α      lambda       -0.4359975E-05
   maximum displ.:     0.0037234 α      in ANC's #4, #2, #5, ...

........................................................................
.............................. CYCLE   17 ..............................
........................................................................
   1    -30.3145129 -0.303145E+02  0.567E-03    0.52       0.0  T
   2    -30.3145129 -0.538358E-07  0.311E-03    0.52       7.6  T
   3    -30.3145129  0.949916E-08  0.154E-03    0.52      15.3  T
   4    -30.3145129 -0.109683E-07  0.722E-04    0.52      32.6  T
   5    -30.3145130 -0.561760E-08  0.242E-04    0.52      97.5  T
     SCC iter.                  ...        0 min,  0.006 sec
     gradient                   ...        0 min,  0.010 sec
 * total energy  :   -29.8998531 Eh     change       -0.4316361E-05 Eh
   gradient norm :     0.0009835 Eh/α   predicted    -0.2181527E-05 ( -49.46%)
   displ. norm   :     0.0719527 α      lambda       -0.4086862E-05
   maximum displ.:     0.0461187 α      in ANC's #4, #5, #2, ...

   *** GEOMETRY OPTIMIZATION CONVERGED AFTER 17 ITERATIONS ***

------------------------------------------------------------------------
 total energy gain   :        -0.0116020 Eh       -7.2804 kcal/mol
 total RMSD          :         0.2571303 a0        0.1361 Å
 total power (kW/mol):        -1.7918243 (step)  -77.3590 (real)
------------------------------------------------------------------------

 ANCopt (total)                0 d,  0 h,  0 min,  0.394 sec
 optimizer setup                ...        0 min,  0.001 sec (  0.128%)
 model hessian                  ...        0 min,  0.003 sec (  0.728%)
 ANC generation                 ...        0 min,  0.001 sec (  0.180%)
 coordinate transformation      ...        0 min,  0.000 sec (  0.062%)
 single point calculation       ...        0 min,  0.381 sec ( 96.643%)
 optimization log               ...        0 min,  0.004 sec (  0.901%)
 hessian update                 ...        0 min,  0.000 sec (  0.062%)
 rational function              ...        0 min,  0.003 sec (  0.867%)

================
 final structure:
================
18
 xtb: 6.4.1 (afa7bdf)
C         3.31471796137636    0.97979686287645   -0.37903642198403
C         2.03737929523662    0.21169203075311   -0.41435083891409
C         0.82256410387723    0.55980560507510    0.06109168733543
C        -0.19980812821629   -0.42084794599527   -0.14855092911494
C        -1.55950956283246   -0.24496328001859    0.28041505576818
N        -1.94544605932796    0.88918412973688    0.89364282945202
N        -3.26277301267928    0.66417409672517    1.12887431322286
C        -3.79812190195691   -0.53097789041045    0.72612702055047
C        -2.65027590102071   -1.12934976341080    0.16027683340362
C         0.29615986605311   -1.51327558489787   -0.79734543034878
S         1.98827227611592   -1.36831167135586   -1.15837092104550
H         3.63691026321575    1.24434914308985   -1.38830973935142
H         3.17733741378833    1.89485452291438    0.19536047740458
H         4.10984885123598    0.38999498300295    0.08067974288927
H         0.61079684434945    1.48918573722034    0.56040194807516
H        -3.77278063333978    1.40418477770268    1.59342051191975
H        -2.59537318823261   -2.11059440767694   -0.29669134638283
H        -0.20990048764275   -2.40890134533108   -1.09763479287972
 
 Bond Distances (Angstroems)
 ---------------------------
C1-C2=1.4909         C1-H12=1.0920        C1-H13=1.0891        C1-H14=1.0915        C2-C1=1.4909         C2-C3=1.3502         
C2-S11=1.7471        C3-C2=1.3502         C3-C4=1.4321         C3-H15=1.0761        C4-C3=1.4321         C4-C5=1.4366         
C4-C10=1.3639        C5-C4=1.4366         C5-N6=1.3458         C5-C9=1.4094         N6-C5=1.3458         N6-N7=1.3570         
N7-N6=1.3570         N7-C8=1.3701         N7-H16=1.0117        C8-N7=1.3701         C8-C9=1.4127         C9-C5=1.4094         
C9-C8=1.4127         C9-H17=1.0838        C10-C4=1.3639        C10-S11=1.7363       C10-H18=1.0716       S11-C2=1.7471        
S11-C10=1.7363       H12-C1=1.0920        H13-C1=1.0891        H14-C1=1.0915        H15-C3=1.0761        H16-N7=1.0117        
H17-C9=1.0838        H18-C10=1.0716       
 C  H  Rav=1.0840 sigma=0.0078  Rmin=1.0716  Rmax=1.0920     6
 C  C  Rav=1.4137 sigma=0.0437  Rmin=1.3502  Rmax=1.4909     7
 N  H  Rav=1.0117 sigma=0.0000  Rmin=1.0117  Rmax=1.0117     1
 N  C  Rav=1.3580 sigma=0.0121  Rmin=1.3458  Rmax=1.3701     2
 N  N  Rav=1.3570 sigma=0.0000  Rmin=1.3570  Rmax=1.3570     1
 S  C  Rav=1.7417 sigma=0.0054  Rmin=1.7363  Rmax=1.7471     2
 
 selected bond angles (degree)
 --------------------
H12-C1-C2=110.84               H13-C1-C2=109.71               H13-C1-H12=108.73              H14-C1-C2=110.84               
H14-C1-H12=107.77              H14-C1-H13=108.89              C3-C2-C1=129.03                S11-C2-C1=120.01               
S11-C2-C3=110.97               C4-C3-C2=114.47                H15-C3-C2=124.27               H15-C3-C4=121.26               
C5-C4-C3=123.24                C10-C4-C3=111.01               C10-C4-C5=125.75               N6-C5-C4=120.71                
C9-C5-C4=129.07                C9-C5-N6=110.22                N7-N6-C5=102.57                C8-N7-N6=118.23                
H16-N7-N6=116.60               H16-N7-C8=125.17               C9-C8-N7= 99.77                C8-C9-C5=109.20                
H17-C9-C5=124.39               H17-C9-C8=126.41               S11-C10-C4=112.73              H18-C10-C4=129.12              
H18-C10-S11=118.15             
 
 selected dihedral angles (degree)
 ---------------------------------
C3-C2-C1-H12=245.20           C3-C2-C1-H13=  5.29           C3-C2-C1-H14=125.58           S11-C2-C1-H12= 64.84          
S11-C2-C1-H13=184.93          S11-C2-C1-H14=305.22          C4-C3-C2-C1=179.66            C4-C3-C2-S11=  0.00           
H15-C3-C2-C1=359.63           H15-C3-C2-S11=179.97          C5-C4-C3-C2=180.04            C5-C4-C3-H15=  0.06           
C10-C4-C3-C2=  0.00           C10-C4-C3-H15=180.04          N6-C5-C4-C3=  1.18            N6-C5-C4-C10=181.20           
C9-C5-C4-C3=181.20            C9-C5-C4-C10=  1.23           N7-N6-C5-C4=179.96            N7-N6-C5-C9=359.93            
C8-N7-N6-C5=  0.10            H16-N7-N6-C5=180.09           C9-C8-N7-N6=359.92            C9-C8-N7-H16=179.92           
C8-C9-C5-C4=180.00            C8-C9-C5-N6=  0.02            H17-C9-C5-C4=  0.08           H17-C9-C5-N6=180.10           
C5-C9-C8-N7=  0.03            H17-C9-C8-N7=179.95           S11-C10-C4-C3=  0.00          S11-C10-C4-C5=179.96          
H18-C10-C4-C3=180.01          H18-C10-C4-C5=  0.00          
           -------------------------------------------------
          |                Final Singlepoint                |
           -------------------------------------------------

          ...................................................
          :                      SETUP                      :
          :.................................................:
          :  # basis functions                  57          :
          :  # atomic orbitals                  56          :
          :  # shells                           30          :
          :  # electrons                        56          :
          :  max. iterations                   250          :
          :  Hamiltonian                  GFN2-xTB          :
          :  restarted?                      false          :
          :  GBSA solvation                  false          :
          :  PC potential                    false          :
          :  electronic temp.          300.0000000     K    :
          :  accuracy                    1.0000000          :
          :  -> integral cutoff          0.2500000E+02      :
          :  -> integral neglect         0.1000000E-07      :
          :  -> SCF convergence          0.1000000E-05 Eh   :
          :  -> wf. convergence          0.1000000E-03 e    :
          :  Broyden damping             0.4000000          :
          ...................................................

 iter      E             dE          RMSdq      gap      omega  full diag
   1    -30.3145130 -0.303145E+02  0.100E-04    0.52       0.0  T
   2    -30.3145130 -0.573799E-10  0.642E-05    0.52     367.3  T
   3    -30.3145130 -0.439684E-10  0.345E-05    0.52     683.4  T

   *** convergence criteria satisfied after 3 iterations ***

         #    Occupation            Energy/Eh            Energy/eV
      -------------------------------------------------------------
         1        2.0000           -0.5936153             -16.1531
       ...           ...                  ...                  ...
        22        2.0000           -0.2610434              -7.1034
        23        2.0000           -0.2497713              -6.7966
        24        2.0000           -0.2432078              -6.6180
        25        2.0000           -0.1897806              -5.1642
        26        2.0000           -0.1849172              -5.0319
        27        2.0000           -0.1568272              -4.2675
        28        1.9999           -0.1211274              -3.2960 (HOMO)
        29        0.0001           -0.1020464              -2.7768 (LUMO)
        30                         -0.0745693              -2.0291
        31                         -0.0418881              -1.1398
        32                          0.0115271               0.3137
        33                          0.0337050               0.9172
       ...                                ...                  ...
        56                          0.8790447              23.9200
      -------------------------------------------------------------
                  HL-Gap            0.0190810 Eh            0.5192 eV
             Fermi-level           -0.1115869 Eh           -3.0364 eV
 
 localization/xTB-IFF output generation
 averaging CT terms over            1  occ. levels
 averaging CT terms over            1  virt. levels
 dipole moment from electron density (au)
     X       Y       Z   
   3.6006   1.2010  -0.3539  total (Debye):    9.690
cpu  time for init local    0.00 s
wall time for init local    0.00 s
 doing rotations ...
 initialization of trafo matrix to unity
iteration     50  convergence  0.82134719D-02
iteration    100  convergence  0.66381292D-04

 converged in    130 iterations, threshold :   0.99796730D-06
 doing transformations ...
 lmo centers(Z=2) and atoms on file <lmocent.coord>
 LMO Fii/eV  ncent    charge center   contributions...
    1 sigma -11.62   1.97   5.07969   1.12784  -0.75345    1C :  0.52    2C :  0.49
    2 sigma -11.46   1.94   3.90808  -1.12107  -1.52645   11S :  0.59    2C :  0.41
    3 sigma -11.25   1.99   6.63413   2.16815  -1.97186    1C :  0.51   12H :  0.49
    4 sigma -11.24   1.99   7.22801   1.10547  -0.14123    1C :  0.51   14H :  0.49
    5 sigma -11.22   1.98   6.08137   2.98463  -0.00045    1C :  0.51   13H :  0.49
    6 sigma -11.21   1.89   2.24028  -2.80369  -1.90725   11S :  0.61   10C :  0.39
    7 sigma -10.77   1.98  -4.95071   1.48839   1.93151    7N :  0.53    6N :  0.47
    8 sigma -10.62   2.00   0.56840   0.17710  -0.05531    3C :  0.52    4C :  0.48
    9 LP    -10.48   1.14   4.94268  -4.07211  -0.40082   11S :  0.93
   10 LP    -10.47   1.15   3.83920  -2.00030  -4.72862   11S :  0.93
   11 sigma -10.39   2.01  -0.06876  -3.99293  -1.88969   18H :  0.50   10C :  0.50
   12 sigma -10.24   1.99  -6.77965   2.14209   2.69111    7N :  0.53   16H :  0.47
   13 sigma -10.14   2.02   1.31205   2.21051   0.73001    3C :  0.50   15H :  0.49
   14 pi     -9.87   2.10   2.79612   0.45455   0.11027    2C :  0.50    3C :  0.48
   15 pi     -9.87   2.10   2.55924   0.89804  -0.81555    2C :  0.50    3C :  0.48
   16 sigma  -9.82   2.02  -1.58037  -0.66129   0.08878    4C :  0.54    5C :  0.45
   17 pi     -9.29   2.16   0.28541  -2.02720  -0.44952   10C :  0.51    4C :  0.45
   18 pi     -9.29   2.16   0.05293  -1.59156  -1.36059   10C :  0.51    4C :  0.45
   19 pi     -8.18   1.77  -6.27665   0.34919   2.26339    7N :  0.70    8C :  0.27
   20 sigma  -8.17   1.99  -4.93849  -3.43626  -0.30219   17H :  0.55    9C :  0.45
   21 pi     -8.15   1.76  -6.47336   0.72436   1.45729    7N :  0.70    8C :  0.27
   22 pi     -8.10   2.10  -3.31438   0.59312   1.59844    6N :  0.58    5C :  0.37
   23 pi     -8.08   2.10  -3.52397   0.94901   0.81712    6N :  0.58    5C :  0.37
   24 sigma  -7.78   1.99  -6.07276  -1.67076   0.80280    9C :  0.55    8C :  0.45
   25 delpi  -7.20   2.34  -4.08282  -1.54199   0.83780    9C :  0.50    5C :  0.41
   26 delpi  -6.66   2.46  -4.42212  -1.18507   0.06380    9C :  0.52    5C :  0.36    8C :  0.08
   27 LP     -6.26   1.02  -2.80071   3.24672   2.17489    6N :  0.99
   28 LP     -4.49   1.04  -9.12021  -1.53798   1.62873    8C :  0.98
 starting deloc pi regularization ...
 thr    2.20000000000000      # pi deloc LMO           5
 files:
 coordprot.0/xtbscreen.xyz/xtblmoinfo/lmocent.coord
 with protonation site input, xtbdock and
 LMO center info written
 

 SCC (total)                   0 d,  0 h,  0 min,  0.038 sec
 SCC setup                      ...        0 min,  0.000 sec (  0.401%)
 Dispersion                     ...        0 min,  0.000 sec (  0.299%)
 classical contributions        ...        0 min,  0.000 sec (  0.089%)
 integral evaluation            ...        0 min,  0.004 sec ( 11.475%)
 iterations                     ...        0 min,  0.004 sec ( 10.460%)
 molecular gradient             ...        0 min,  0.010 sec ( 25.002%)
 printout                       ...        0 min,  0.020 sec ( 52.153%)

         :::::::::::::::::::::::::::::::::::::::::::::::::::::
         ::                     SUMMARY                     ::
         :::::::::::::::::::::::::::::::::::::::::::::::::::::
         :: total energy             -29.899853109179 Eh    ::
         :: gradient norm              0.000983288577 Eh/a0 ::
         :: HOMO-LUMO gap              0.519220424507 eV    ::
         ::.................................................::
         :: SCC energy               -30.314512951175 Eh    ::
         :: -> isotropic ES            0.122419525399 Eh    ::
         :: -> anisotropic ES          0.003014494524 Eh    ::
         :: -> anisotropic XC          0.017836859618 Eh    ::
         :: -> dispersion             -0.018633239849 Eh    ::
         :: repulsion energy           0.414687892960 Eh    ::
         :: add. restraining           0.000000000000 Eh    ::
         :: total charge              -1.000000000000 e     ::
         :::::::::::::::::::::::::::::::::::::::::::::::::::::

           -------------------------------------------------
          |                Property Printout                |
           -------------------------------------------------

    * Orbital Energies and Occupations

         #    Occupation            Energy/Eh            Energy/eV
      -------------------------------------------------------------
         1        2.0000           -0.5936153             -16.1531
       ...           ...                  ...                  ...
        16        2.0000           -0.3329217              -9.0593
        17        2.0000           -0.3235431              -8.8041
        18        2.0000           -0.3137162              -8.5367
        19        2.0000           -0.3040013              -8.2723
        20        2.0000           -0.2932427              -7.9795
        21        2.0000           -0.2741924              -7.4612
        22        2.0000           -0.2610434              -7.1034
        23        2.0000           -0.2497713              -6.7966
        24        2.0000           -0.2432078              -6.6180
        25        2.0000           -0.1897806              -5.1642
        26        2.0000           -0.1849172              -5.0319
        27        2.0000           -0.1568272              -4.2675
        28        1.9999           -0.1211274              -3.2960 (HOMO)
        29        0.0001           -0.1020464              -2.7768 (LUMO)
        30                         -0.0745693              -2.0291
        31                         -0.0418881              -1.1398
        32                          0.0115271               0.3137
        33                          0.0337050               0.9172
        34                          0.0884383               2.4065
        35                          0.1215642               3.3079
        36                          0.1501251               4.0851
        37                          0.1640385               4.4637
        38                          0.2156096               5.8670
        39                          0.2330122               6.3406
       ...                                ...                  ...
        56                          0.8790447              23.9200
      -------------------------------------------------------------
                  HL-Gap            0.0190810 Eh            0.5192 eV
             Fermi-level           -0.1115869 Eh           -3.0364 eV

     #   Z          covCN         q      C6AA      α(0)
     1   6 C        3.774    -0.092    22.284     6.726
     2   6 C        2.972     0.020    27.562     8.612
     3   6 C        3.120    -0.054    29.154     8.843
     4   6 C        3.128    -0.005    27.954     8.657
     5   6 C        3.103     0.036    27.072     8.526
     6   7 N        1.949    -0.354    30.029     8.126
     7   7 N        3.068    -0.032    21.863     6.945
     8   6 C        1.959    -0.309    40.618    10.292
     9   6 C        3.073    -0.086    30.080     8.993
    10   6 C        2.943    -0.032    28.792     8.800
    11  16 S        2.295    -0.200   149.579    20.584
    12   1 H        0.924     0.029     2.599     2.521
    13   1 H        0.925     0.029     2.602     2.522
    14   1 H        0.924     0.030     2.589     2.516
    15   1 H        0.926     0.028     2.611     2.527
    16   1 H        0.860     0.073     2.072     2.255
    17   1 H        0.925    -0.090     5.231     3.577
    18   1 H        0.926     0.010     2.888     2.658

 Mol. C6AA /au·bohr⁶  :       5966.770473
 Mol. C8AA /au·bohr⁸  :     164634.909054
 Mol. α(0) /au        :        123.679472


Wiberg/Mayer (AO) data.
largest (>0.10) Wiberg bond orders for each atom

 ---------------------------------------------------------------------------
     #   Z sym  total        # sym  WBO       # sym  WBO       # sym  WBO
 ---------------------------------------------------------------------------
     1   6 C    3.998 --     2 C    1.028    13 H    0.983    14 H    0.978
                            12 H    0.976
     2   6 C    3.940 --     3 C    1.662    11 S    1.110     1 C    1.028
                            10 C    0.106
     3   6 C    3.986 --     2 C    1.662     4 C    1.180    15 H    0.962
     4   6 C    3.977 --    10 C    1.550     3 C    1.180     5 C    1.098
     5   6 C    3.959 --     6 N    1.362     9 C    1.325     4 C    1.098
     6   7 N    2.912 --     5 C    1.362     7 N    1.159     8 C    0.186
                             9 C    0.122
     7   7 N    3.547 --     8 C    1.267     6 N    1.159    16 H    0.964
     8   6 C    2.926 --     9 C    1.437     7 N    1.267     6 N    0.186
     9   6 C    3.948 --     8 C    1.437     5 C    1.325    17 H    0.967
                             6 N    0.122
    10   6 C    3.907 --     4 C    1.550    11 S    1.113    18 H    0.971
                             2 C    0.106
    11  16 S    2.497 --    10 C    1.113     2 C    1.110
    12   1 H    0.999 --     1 C    0.976
    13   1 H    0.999 --     1 C    0.983
    14   1 H    0.999 --     1 C    0.978
    15   1 H    0.999 --     3 C    0.962
    16   1 H    0.994 --     7 N    0.964
    17   1 H    0.992 --     9 C    0.967
    18   1 H    1.000 --    10 C    0.971
 ---------------------------------------------------------------------------

Topologies differ in total number of bonds
Writing topology from bond orders to xtbtopo.mol

molecular dipole:
                 x           y           z       tot (Debye)
 q only:        3.248       1.016      -0.348
   full:        3.600       1.201      -0.354       9.689
molecular quadrupole (traceless):
                xx          xy          yy          xz          yz          zz
 q only:      -21.489      -2.330       9.416       8.345      -2.043      12.073
  q+dip:      -29.146      -3.406      14.451      10.480      -0.584      14.695
   full:      -29.840      -3.331      13.983      11.174      -1.671      15.858

           -------------------------------------------------
          |                Geometry Summary                 |
           -------------------------------------------------

      molecular mass/u    :      163.2196663
   center of mass at/Å    :       -0.1535454      -0.2774106      -0.0938101
  moments of inertia/u·Å² :        0.1787904E+03   0.9338563E+03   0.1109481E+04
rotational constants/cm⁻¹ :        0.9428713E-01   0.1805163E-01   0.1519416E-01

 * 17 selected distances

     #   Z          #   Z                                           value/Å
     2   6 C        3   6 C                                       1.3501869
     3   6 C        4   6 C                                       1.4320881
     4   6 C        5   6 C                                       1.4365706
     5   6 C        6   7 N                                       1.3458401
     6   7 N        7   7 N                                       1.3569501
     7   7 N        8   6 C                                       1.3701066
     5   6 C        9   6 C                                       1.4093771
     4   6 C       10   6 C                                       1.3639343
     2   6 C       11  16 S                                       1.7471088 (max)
    10   6 C       11  16 S                                       1.7362599
     1   6 C       12   1 H                                       1.0919837
     1   6 C       13   1 H                                       1.0890986
     1   6 C       14   1 H                                       1.0915303
     3   6 C       15   1 H                                       1.0760593
     7   7 N       16   1 H                                       1.0116950 (min)
     9   6 C       17   1 H                                       1.0838244
    10   6 C       18   1 H                                       1.0716419

 * 6 distinct bonds (by element types)

   Z      Z             #   av. dist./Å        max./Å        min./Å
   1 H    6 C           6     1.0840230     1.0919837     1.0716419
   6 C    6 C           5     1.3984314     1.4365706     1.3501869
   1 H    7 N           1     1.0116950     1.0116950     1.0116950
   6 C    7 N           2     1.3579734     1.3701066     1.3458401
   7 N    7 N           1     1.3569501     1.3569501     1.3569501
   6 C   16 S           2     1.7416843     1.7471088     1.7362599


optimized geometry written to: xtbopt.xyz


           -------------------------------------------------
          | TOTAL ENERGY              -29.899853109179 Eh   |
          | GRADIENT NORM               0.000983288577 Eh/α |
          | HOMO-LUMO GAP               0.519220424507 eV   |
           -------------------------------------------------

------------------------------------------------------------------------
 * finished run on 2022/11/02 at 18:13:39.521     
------------------------------------------------------------------------
 total:
 * wall-time:     0 d,  0 h,  0 min,  0.553 sec
 *  cpu-time:     0 d,  0 h,  0 min,  0.510 sec
 * ratio c/w:     0.924 speedup
 SCF:
 * wall-time:     0 d,  0 h,  0 min,  0.057 sec
 *  cpu-time:     0 d,  0 h,  0 min,  0.051 sec
 * ratio c/w:     0.887 speedup
 ANC optimizer:
 * wall-time:     0 d,  0 h,  0 min,  0.436 sec
 *  cpu-time:     0 d,  0 h,  0 min,  0.429 sec
 * ratio c/w:     0.985 speedup

