18
 energy: -29.899853109179 gnorm: 0.000983288577 xtb: 6.4.1 (afa7bdf)
C         3.31471796137636    0.97979686287645   -0.37903642198403
C         2.03737929523662    0.21169203075311   -0.41435083891409
C         0.82256410387723    0.55980560507510    0.06109168733543
C        -0.19980812821629   -0.42084794599527   -0.14855092911494
C        -1.55950956283246   -0.24496328001859    0.28041505576818
N        -1.94544605932796    0.88918412973688    0.89364282945202
N        -3.26277301267928    0.66417409672517    1.12887431322286
C        -3.79812190195691   -0.53097789041045    0.72612702055047
C        -2.65027590102071   -1.12934976341080    0.16027683340362
C         0.29615986605311   -1.51327558489787   -0.79734543034878
S         1.98827227611592   -1.36831167135586   -1.15837092104550
H         3.63691026321575    1.24434914308985   -1.38830973935142
H         3.17733741378833    1.89485452291438    0.19536047740458
H         4.10984885123598    0.38999498300295    0.08067974288927
H         0.61079684434945    1.48918573722034    0.56040194807516
H        -3.77278063333978    1.40418477770268    1.59342051191975
H        -2.59537318823261   -2.11059440767694   -0.29669134638283
H        -0.20990048764275   -2.40890134533108   -1.09763479287972
