      -----------------------------------------------------------      
     |                   =====================                   |     
     |                           x T B                           |     
     |                   =====================                   |     
     |                         S. Grimme                         |     
     |          Mulliken Center for Theoretical Chemistry        |     
     |                    University of Bonn                     |     
      -----------------------------------------------------------      

   * xtb version 6.4.1 (afa7bdf) compiled by 'ehlert@majestix' on 2021-06-10

   xtb is free software: you can redistribute it and/or modify it under
   the terms of the GNU Lesser General Public License as published by
   the Free Software Foundation, either version 3 of the License, or
   (at your option) any later version.
   
   xtb is distributed in the hope that it will be useful,
   but WITHOUT ANY WARRANTY; without even the implied warranty of
   MERCHANTABILITY or FITNESS FOR A PARTICULAR PURPOSE.  See the
   GNU Lesser General Public License for more details.
   
   Cite this work as:
   * C. Bannwarth, E. Caldeweyher, S. Ehlert, A. Hansen, P. Pracht,
     J. Seibert, S. Spicher, S. Grimme, WIREs Comput. Mol. Sci., 2020, 11,
     e01493. DOI: 10.1002/wcms.1493
   
   for GFN2-xTB:
   * C. Bannwarth, S. Ehlert and S. Grimme., J. Chem. Theory Comput., 2019,
     15, 1652-1671. DOI: 10.1021/acs.jctc.8b01176
   for GFN1-xTB:
   * S. Grimme, C. Bannwarth, P. Shushkov, J. Chem. Theory Comput., 2017,
     13, 1989-2009. DOI: 10.1021/acs.jctc.7b00118
   for GFN0-xTB:
   * P. Pracht, E. Caldeweyher, S. Ehlert, S. Grimme, ChemRxiv, 2019, preprint.
     DOI: 10.26434/chemrxiv.8326202.v1
   for GFN-FF:
   * S. Spicher and S. Grimme, Angew. Chem. Int. Ed., 2020, 59, 15665-15673.
     DOI: 10.1002/anie.202004239
   
   for DFT-D4:
   * E. Caldeweyher, C. Bannwarth and S. Grimme, J. Chem. Phys., 2017,
     147, 034112. DOI: 10.1063/1.4993215
   * E. Caldeweyher, S. Ehlert, A. Hansen, H. Neugebauer, S. Spicher,
     C. Bannwarth and S. Grimme, J. Chem. Phys., 2019, 150, 154122.
     DOI: 10.1063/1.5090222
   * E. Caldeweyher, J.-M. Mewes, S. Ehlert and S. Grimme, Phys. Chem. Chem. Phys.
     2020, 22, 8499-8512. DOI: 10.1039/D0CP00502A
   
   for sTDA-xTB:
   * S. Grimme and C. Bannwarth, J. Chem. Phys., 2016, 145, 054103.
     DOI: 10.1063/1.4959605
   
   in the mass-spec context:
   * V. Asgeirsson, C. Bauer and S. Grimme, Chem. Sci., 2017, 8, 4879.
     DOI: 10.1039/c7sc00601b
   * J. Koopman and S. Grimme, ACS Omega 2019, 4, 12, 15120-15133.
     DOI: 10.1021/acsomega.9b02011
   
   for metadynamics refer to:
   * S. Grimme, J. Chem. Theory Comput., 2019, 155, 2847-2862
     DOI: 10.1021/acs.jctc.9b00143
   
   for SPH calculations refer to:
   * S. Spicher and S. Grimme, J. Chem. Theory Comput., 2021, 17, 1701-1714
     DOI: 10.1021/acs.jctc.0c01306
   
   with help from (in alphabetical order)
   P. Atkinson, C. Bannwarth, F. Bohle, G. Brandenburg, E. Caldeweyher
   M. Checinski, S. Dohm, S. Ehlert, S. Ehrlich, I. Gerasimov, J. Koopman
   C. Lavigne, S. Lehtola, F. März, M. Müller, F. Musil, H. Neugebauer
   J. Pisarek, C. Plett, P. Pracht, J. Seibert, P. Shushkov, S. Spicher
   M. Stahn, M. Steiner, T. Strunk, J. Stückrath, T. Rose, and J. Unsleber
   
 * started run on 2022/11/02 at 18:13:35.653     

           -------------------------------------------------
          |                Calculation Setup                |
           -------------------------------------------------

          program call               : /lustre/hpc/kemi/borup/pKalculator/dep/xtb-6.4.1/bin/xtb --gfn 2 /lustre/hpc/kemi/borup/pKalculator/calc/test#-1=4/conf03/test#-1=4_conf03_gfn2.xyz --opt --lmo --chrg -1 --uhf 0
          hostname                   : fend01.cluster
          coordinate file            : /lustre/hpc/kemi/borup/pKalculator/calc/test#-1=4/conf03/test#-1=4_conf03_gfn2.xyz
          omp threads                :                     1
          number of atoms            :                    18
          number of electrons        :                    56
          charge                     :                    -1
          spin                       :                   0.0
          first test random number   :      0.77434732756555

   ID    Z sym.   atoms
    1    6 C      1-5, 8-10
    2    7 N      6, 7
    3   16 S      11
    4    1 H      12-18

           -------------------------------------------------
          |                 G F N 2 - x T B                 |
           -------------------------------------------------

        Reference                      10.1021/acs.jctc.8b01176
      * Hamiltonian:
        H0-scaling (s, p, d)           1.850000    2.230000    2.230000
        zeta-weighting                 0.500000
      * Dispersion:
        s8                             2.700000
        a1                             0.520000
        a2                             5.000000
        s9                             5.000000
      * Repulsion:
        kExp                           1.500000    1.000000
        rExp                           1.000000
      * Coulomb:
        alpha                          2.000000
        third order                    shell-resolved
        anisotropic                    true
        a3                             3.000000
        a5                             4.000000
        cn-shift                       1.200000
        cn-exp                         4.000000
        max-rad                        5.000000


          ...................................................
          :                      SETUP                      :
          :.................................................:
          :  # basis functions                  57          :
          :  # atomic orbitals                  56          :
          :  # shells                           30          :
          :  # electrons                        56          :
          :  max. iterations                   250          :
          :  Hamiltonian                  GFN2-xTB          :
          :  restarted?                      false          :
          :  GBSA solvation                  false          :
          :  PC potential                    false          :
          :  electronic temp.          300.0000000     K    :
          :  accuracy                    1.0000000          :
          :  -> integral cutoff          0.2500000E+02      :
          :  -> integral neglect         0.1000000E-07      :
          :  -> SCF convergence          0.1000000E-05 Eh   :
          :  -> wf. convergence          0.1000000E-03 e    :
          :  Broyden damping             0.4000000          :
          ...................................................

 iter      E             dE          RMSdq      gap      omega  full diag
   1    -30.1317964 -0.301318E+02  0.470E+00    2.61       0.0  T
   2    -30.1555759 -0.237795E-01  0.397E+00    0.11       1.0  T
   3    -30.2626607 -0.107085E+00  0.208E+00    1.26       1.0  T
   4    -30.2699044 -0.724367E-02  0.124E+00    0.12       1.0  T
   5    -30.2908118 -0.209074E-01  0.475E-01    0.68       1.0  T
   6    -30.2932722 -0.246036E-02  0.250E-01    0.43       1.0  T
   7    -30.2935609 -0.288771E-03  0.167E-01    0.34       1.0  T
   8    -30.2935887 -0.277517E-04  0.805E-02    0.25       1.0  T
   9    -30.2936810 -0.922751E-04  0.264E-02    0.27       1.0  T
  10    -30.2936836 -0.263168E-05  0.133E-02    0.28       1.8  T
  11    -30.2936841 -0.493086E-06  0.525E-03    0.28       4.5  T
  12    -30.2936843 -0.268723E-06  0.188E-03    0.28      12.5  T
  13    -30.2936844 -0.190647E-07  0.113E-03    0.28      20.8  T
  14    -30.2936844 -0.609847E-08  0.328E-04    0.28      71.8  T
  15    -30.2936844 -0.413191E-09  0.145E-04    0.28     162.5  T

   *** convergence criteria satisfied after 15 iterations ***

         #    Occupation            Energy/Eh            Energy/eV
      -------------------------------------------------------------
         1        2.0000           -0.5527909             -15.0422
       ...           ...                  ...                  ...
        22        2.0000           -0.2564826              -6.9792
        23        2.0000           -0.2508113              -6.8249
        24        2.0000           -0.2465843              -6.7099
        25        2.0000           -0.2325013              -6.3267
        26        2.0000           -0.1835119              -4.9936
        27        2.0000           -0.1611916              -4.3862
        28        1.9907           -0.0938574              -2.5540 (HOMO)
        29        0.0093           -0.0836535              -2.2763 (LUMO)
        30                         -0.0518744              -1.4116
        31                          0.0034131               0.0929
        32                          0.0051026               0.1388
        33                          0.0668816               1.8199
       ...                                ...                  ...
        56                          0.9094939              24.7486
      -------------------------------------------------------------
                  HL-Gap            0.0102038 Eh            0.2777 eV
             Fermi-level           -0.0887555 Eh           -2.4152 eV
 
 localization/xTB-IFF output generation
 averaging CT terms over            1  occ. levels
 averaging CT terms over            1  virt. levels
 dipole moment from electron density (au)
     X       Y       Z   
  -3.0119   0.0368  -0.8992  total (Debye):    7.990
cpu  time for init local    0.01 s
wall time for init local    0.01 s
 doing rotations ...
 initialization of trafo matrix to unity

 converged in     32 iterations, threshold :   0.98640103D-06
 doing transformations ...
 lmo centers(Z=2) and atoms on file <lmocent.coord>
 LMO Fii/eV  ncent    charge center   contributions...
    1 sigma -13.36   1.95  -4.48995  -0.63675  -2.65147    7N :  0.57    6N :  0.44
    2 sigma -12.87   1.92  -6.20730  -0.39944  -1.57476    7N :  0.58    8C :  0.43
    3 sigma -12.60   1.97  -6.32277  -0.80129  -3.59372    7N :  0.56   15H :  0.44
    4 sigma -11.30   2.01  -7.99018  -0.04784   0.07888   16H :  0.51    8C :  0.49
    5 sigma -10.54   1.99  -3.49698   0.00077   0.61474    9C :  0.52    5C :  0.48
    6 sigma -10.31   2.01  -4.60558   0.41760   2.63581   17H :  0.51    9C :  0.49
    7 pi     -9.85   2.15  -5.50912   0.50636   0.42311    9C :  0.49    8C :  0.48
    8 pi     -9.85   2.16  -5.52168  -0.48956   0.62132    9C :  0.49    8C :  0.48
    9 pi     -9.72   2.13  -2.91245  -0.88765  -1.43674    6N :  0.54    5C :  0.42
   10 pi     -9.71   2.13  -2.90025   0.01953  -1.61766    6N :  0.54    5C :  0.42
   11 sigma  -9.66   2.01  -1.16738  -0.12567   0.13928    5C :  0.54    4C :  0.45
   12 sigma  -9.58   1.98   8.07070  -1.01125  -0.29203   12H :  0.51    1C :  0.49
   13 sigma  -9.57   1.99   7.55127   0.70540  -1.64305   14H :  0.51    1C :  0.49
   14 pi     -9.53   1.53  -5.49754  -0.54470  -2.24508    7N :  0.80    8C :  0.10
   15 sigma  -9.49   1.98   7.01541  -1.38936  -2.23125   13H :  0.51    1C :  0.50
   16 sigma  -9.38   1.96   5.95869  -0.37940  -0.53125    1C :  0.55    2C :  0.46
   17 sigma  -9.38   1.95   2.57810   0.44377   3.29151   11S :  0.57   10C :  0.43
   18 sigma  -9.35   1.99   0.07134   0.64994   4.12430   18H :  0.53   10C :  0.47
   19 sigma  -8.73   1.75   4.57567   0.15915   2.03093   11S :  0.69    2C :  0.30
   20 LP     -8.48   1.16   4.42557   2.98337   3.87694   11S :  0.93
   21 LP     -8.41   1.16   4.28888  -1.78128   4.75022   11S :  0.93
   22 sigma  -8.41   2.01   1.17961  -0.22448  -0.18046    4C :  0.55    3C :  0.44
   23 pi     -7.97   2.20   0.53236  -0.33669   1.82479   10C :  0.48    4C :  0.47
   24 delpi  -7.96   2.20   0.54977   0.66451   1.63215   10C :  0.48    4C :  0.47
   25 LP     -7.78   1.02  -2.25519  -0.97718  -4.20956    6N :  0.99
   26 pi     -6.73   2.18   3.50644  -0.76484  -0.04642    2C :  0.55    3C :  0.40
   27 pi     -6.71   2.20   3.51671   0.24148  -0.25259    2C :  0.54    3C :  0.40
   28 LP     -4.20   1.33   3.27412  -0.64501  -1.99292    3C :  0.86    2C :  0.09
 starting deloc pi regularization ...
 thr    2.20000000000000      # pi deloc LMO           5
 files:
 coordprot.0/xtbscreen.xyz/xtblmoinfo/lmocent.coord
 with protonation site input, xtbdock and
 LMO center info written
 

 SCC (total)                   0 d,  0 h,  0 min,  0.055 sec
 SCC setup                      ...        0 min,  0.000 sec (  0.782%)
 Dispersion                     ...        0 min,  0.000 sec (  0.610%)
 classical contributions        ...        0 min,  0.000 sec (  0.150%)
 integral evaluation            ...        0 min,  0.007 sec ( 13.185%)
 iterations                     ...        0 min,  0.018 sec ( 33.791%)
 molecular gradient             ...        0 min,  0.010 sec ( 17.633%)
 printout                       ...        0 min,  0.018 sec ( 33.736%)

         :::::::::::::::::::::::::::::::::::::::::::::::::::::
         ::                     SUMMARY                     ::
         :::::::::::::::::::::::::::::::::::::::::::::::::::::
         :: total energy             -29.871748378952 Eh    ::
         :: gradient norm              0.105307153057 Eh/a0 ::
         :: HOMO-LUMO gap              0.277660860374 eV    ::
         ::.................................................::
         :: SCC energy               -30.293684370410 Eh    ::
         :: -> isotropic ES            0.114200517204 Eh    ::
         :: -> anisotropic ES          0.012355998225 Eh    ::
         :: -> anisotropic XC          0.017328096815 Eh    ::
         :: -> dispersion             -0.018149664232 Eh    ::
         :: repulsion energy           0.421987957783 Eh    ::
         :: add. restraining           0.000000000000 Eh    ::
         :: total charge              -1.000000000000 e     ::
         :::::::::::::::::::::::::::::::::::::::::::::::::::::

      ----------------------------------------------------------- 
     |                   =====================                   |
     |                        A N C O P T                        |
     |                   =====================                   |
     |               Approximate Normal Coordinate               |
     |                Rational Function Optimizer                |
      ----------------------------------------------------------- 

          ...................................................
          :                      SETUP                      :
          :.................................................:
          :   optimization level            normal          :
          :   max. optcycles                   200          :
          :   ANC micro-cycles                  20          :
          :   degrees of freedom                48          :
          :.................................................:
          :   RF solver                   davidson          :
          :   write xtbopt.log                true          :
          :   linear?                        false          :
          :   energy convergence         0.5000000E-05 Eh   :
          :   grad. convergence          0.1000000E-02 Eh/α :
          :   maximium RF displ.         1.0000000          :
          :   Hlow (freq-cutoff)         0.1000000E-01      :
          :   Hmax (freq-cutoff)         5.0000000          :
          :   S6 in model hess.         20.0000000          :
          ...................................................

generating ANC from model Hessian ...
Using Lindh-Hessian (1995)
 Shifting diagonal of input Hessian by   8.084737992510634E-003
 Lowest  eigenvalues of input Hessian
    0.000000    0.000000    0.000000    0.000000    0.000000    0.000000
    0.010000    0.011811    0.012661    0.015470    0.018487    0.027484
    0.029397    0.034875    0.043927    0.048567    0.059421    0.073605
 Highest eigenvalues
    1.720879    1.756016    1.904066    1.928029    1.985796    2.065461
 

........................................................................
.............................. CYCLE    1 ..............................
........................................................................
   1    -30.2936844 -0.302937E+02  0.167E-04    0.28       0.0  T
   2    -30.2936844  0.749480E-10  0.171E-04    0.28     138.1  T
   3    -30.2936844 -0.641901E-09  0.512E-05    0.28     460.3  T
     SCC iter.                  ...        0 min,  0.004 sec
     gradient                   ...        0 min,  0.009 sec
 * total energy  :   -29.8717484 Eh     change       -0.1099139E-09 Eh
   gradient norm :     0.1053073 Eh/α   predicted     0.0000000E+00 (-100.00%)
   displ. norm   :     0.3202075 α      lambda       -0.2381425E-01
   maximum displ.:     0.1788936 α      in ANC's #9, #31, #13, ...

........................................................................
.............................. CYCLE    2 ..............................
........................................................................
   1    -30.3084344 -0.303084E+02  0.651E-01    0.76       0.0  T
   2    -30.3083899  0.445566E-04  0.407E-01    0.79       1.0  T
   3    -30.3073450  0.104485E-02  0.332E-01    0.75       1.0  T
   4    -30.3088904 -0.154537E-02  0.560E-02    0.78       1.0  T
   5    -30.3088969 -0.650483E-05  0.348E-02    0.77       1.0  T
   6    -30.3089063 -0.939603E-05  0.984E-03    0.77       2.4  T
   7    -30.3089067 -0.378652E-06  0.658E-03    0.77       3.6  T
   8    -30.3089072 -0.488489E-06  0.290E-03    0.77       8.1  T
   9    -30.3089072 -0.268822E-07  0.812E-04    0.77      29.0  T
  10    -30.3089072 -0.724664E-08  0.315E-04    0.77      74.7  T
     SCC iter.                  ...        0 min,  0.011 sec
     gradient                   ...        0 min,  0.009 sec
 * total energy  :   -29.8879454 Eh     change       -0.1619707E-01 Eh
   gradient norm :     0.0455543 Eh/α   predicted    -0.1312799E-01 ( -18.95%)
   displ. norm   :     0.2595448 α      lambda       -0.6416541E-02
   maximum displ.:     0.1710721 α      in ANC's #9, #7, #31, ...

........................................................................
.............................. CYCLE    3 ..............................
........................................................................
   1    -30.3175231 -0.303175E+02  0.370E-01    1.03       0.0  T
   2    -30.3174876  0.355205E-04  0.256E-01    1.10       1.0  T
   3    -30.3175885 -0.100859E-03  0.171E-01    1.06       1.0  T
   4    -30.3178827 -0.294231E-03  0.418E-02    1.07       1.0  T
   5    -30.3178931 -0.103999E-04  0.209E-02    1.07       1.1  T
   6    -30.3178953 -0.217616E-05  0.108E-02    1.08       2.2  T
   7    -30.3178968 -0.155921E-05  0.417E-03    1.07       5.7  T
   8    -30.3178970 -0.196062E-06  0.192E-03    1.07      12.3  T
   9    -30.3178971 -0.781989E-08  0.551E-04    1.07      42.8  T
  10    -30.3178971 -0.117605E-08  0.202E-04    1.07     116.7  T
     SCC iter.                  ...        0 min,  0.011 sec
     gradient                   ...        0 min,  0.010 sec
 * total energy  :   -29.8917953 Eh     change       -0.3849816E-02 Eh
   gradient norm :     0.0239136 Eh/α   predicted    -0.3424389E-02 ( -11.05%)
   displ. norm   :     0.1408254 α      lambda       -0.1094272E-02
   maximum displ.:     0.0765622 α      in ANC's #7, #9, #3, ...

........................................................................
.............................. CYCLE    4 ..............................
........................................................................
   1    -30.3215702 -0.303216E+02  0.149E-01    1.13       0.0  T
   2    -30.3215446  0.256492E-04  0.119E-01    1.17       1.0  T
   3    -30.3216983 -0.153759E-03  0.528E-02    1.14       1.0  T
   4    -30.3217224 -0.240836E-04  0.236E-02    1.15       1.0  T
   5    -30.3217260 -0.358532E-05  0.853E-03    1.15       2.8  T
   6    -30.3217262 -0.155103E-06  0.574E-03    1.15       4.1  T
   7    -30.3217265 -0.359575E-06  0.186E-03    1.15      12.7  T
   8    -30.3217266 -0.218580E-07  0.977E-04    1.15      24.1  T
   9    -30.3217266 -0.208496E-08  0.368E-04    1.15      64.1  T
     SCC iter.                  ...        0 min,  0.010 sec
     gradient                   ...        0 min,  0.009 sec
 * total energy  :   -29.8926405 Eh     change       -0.8452428E-03 Eh
   gradient norm :     0.0209764 Eh/α   predicted    -0.5579866E-03 ( -33.99%)
   displ. norm   :     0.2127069 α      lambda       -0.1402186E-02
   maximum displ.:     0.1238486 α      in ANC's #3, #7, #9, ...

........................................................................
.............................. CYCLE    5 ..............................
........................................................................
   1    -30.3267357 -0.303267E+02  0.300E-01    1.19       0.0  T
   2    -30.3265406  0.195163E-03  0.244E-01    1.28       1.0  T
   3    -30.3273134 -0.772827E-03  0.108E-01    1.22       1.0  T
   4    -30.3274233 -0.109922E-03  0.495E-02    1.22       1.0  T
   5    -30.3274381 -0.148142E-04  0.145E-02    1.22       1.6  T
   6    -30.3274388 -0.713237E-06  0.985E-03    1.22       2.4  T
   7    -30.3274397 -0.846948E-06  0.369E-03    1.22       6.4  T
   8    -30.3274398 -0.670902E-07  0.170E-03    1.22      13.9  T
   9    -30.3274398 -0.516420E-08  0.524E-04    1.22      45.0  T
  10    -30.3274398 -0.234237E-08  0.149E-04    1.22     157.7  T
     SCC iter.                  ...        0 min,  0.011 sec
     gradient                   ...        0 min,  0.010 sec
 * total energy  :   -29.8936604 Eh     change       -0.1019849E-02 Eh
   gradient norm :     0.0180440 Eh/α   predicted    -0.7328127E-03 ( -28.15%)
   displ. norm   :     0.1979813 α      lambda       -0.1180075E-02
   maximum displ.:     0.1266060 α      in ANC's #3, #7, #4, ...

........................................................................
.............................. CYCLE    6 ..............................
........................................................................
   1    -30.3322312 -0.303322E+02  0.408E-01    1.26       0.0  T
   2    -30.3316383  0.592942E-03  0.347E-01    1.38       1.0  T
   3    -30.3333754 -0.173713E-02  0.149E-01    1.30       1.0  T
   4    -30.3335863 -0.210900E-03  0.650E-02    1.30       1.0  T
   5    -30.3336108 -0.244598E-04  0.151E-02    1.30       1.6  T
   6    -30.3336111 -0.340407E-06  0.107E-02    1.31       2.2  T
   7    -30.3336120 -0.854856E-06  0.478E-03    1.31       4.9  T
   8    -30.3336121 -0.140307E-06  0.199E-03    1.31      11.9  T
   9    -30.3336121 -0.970156E-08  0.473E-04    1.31      49.8  T
  10    -30.3336121 -0.158239E-08  0.182E-04    1.31     129.2  T
     SCC iter.                  ...        0 min,  0.011 sec
     gradient                   ...        0 min,  0.010 sec
 * total energy  :   -29.8945889 Eh     change       -0.9285808E-03 Eh
   gradient norm :     0.0164065 Eh/α   predicted    -0.6131649E-03 ( -33.97%)
   displ. norm   :     0.2705532 α      lambda       -0.1683787E-02
   maximum displ.:     0.1566689 α      in ANC's #3, #40, #34, ...

........................................................................
.............................. CYCLE    7 ..............................
........................................................................
   1    -30.3386795 -0.303387E+02  0.745E-01    1.40       0.0  T
   2    -30.3357858  0.289364E-02  0.668E-01    1.58       1.0  T
   3    -30.3428456 -0.705974E-02  0.269E-01    1.47       1.0  T
   4    -30.3435449 -0.699356E-03  0.109E-01    1.47       1.0  T
   5    -30.3436042 -0.592514E-04  0.227E-02    1.47       1.0  T
   6    -30.3436044 -0.162054E-06  0.135E-02    1.47       1.8  T
   7    -30.3436053 -0.888930E-06  0.828E-03    1.47       2.8  T
   8    -30.3436058 -0.583115E-06  0.306E-03    1.47       7.7  T
   9    -30.3436059 -0.214175E-07  0.640E-04    1.47      36.8  T
  10    -30.3436059 -0.264028E-08  0.278E-04    1.47      84.9  T
     SCC iter.                  ...        0 min,  0.011 sec
     gradient                   ...        0 min,  0.009 sec
 * total energy  :   -29.8960128 Eh     change       -0.1423854E-02 Eh
   gradient norm :     0.0164109 Eh/α   predicted    -0.9035196E-03 ( -36.54%)
   displ. norm   :     0.5270992 α      lambda       -0.3524808E-02
   maximum displ.:     0.2178711 α      in ANC's #3, #34, #40, ...

........................................................................
.............................. CYCLE    8 ..............................
........................................................................
   1    -30.3427480 -0.303427E+02  0.149E+00    1.80       0.0  T
   2    -30.3285074  0.142406E-01  0.143E+00    1.79       1.0  T
   3    -30.3594773 -0.309700E-01  0.571E-01    1.81       1.0  T
   4    -30.3619861 -0.250872E-02  0.172E-01    1.78       1.0  T
   5    -30.3620882 -0.102131E-03  0.464E-02    1.76       1.0  T
   6    -30.3620929 -0.473473E-05  0.254E-02    1.77       1.0  T
   7    -30.3620955 -0.257043E-05  0.106E-02    1.77       2.2  T
   8    -30.3620963 -0.749962E-06  0.597E-03    1.77       3.9  T
   9    -30.3620964 -0.188534E-06  0.244E-03    1.77       9.7  T
  10    -30.3620965 -0.112506E-07  0.561E-04    1.77      42.0  T
  11    -30.3620965 -0.164178E-08  0.285E-04    1.77      82.8  T
     SCC iter.                  ...        0 min,  0.012 sec
     gradient                   ...        0 min,  0.009 sec
 * total energy  :   -29.8994799 Eh     change       -0.3467106E-02 Eh
   gradient norm :     0.0220659 Eh/α   predicted    -0.2252060E-02 ( -35.04%)
   displ. norm   :     0.8837811 α      lambda       -0.7594970E-02
   maximum displ.:     0.3824489 α      in ANC's #34, #40, #13, ...

........................................................................
.............................. CYCLE    9 ..............................
........................................................................
   1    -30.3373762 -0.303374E+02  0.172E+00    2.03       0.0  T
   2    -30.3091256  0.282506E-01  0.181E+00    1.69       1.0  T
   3    -30.3558793 -0.467537E-01  0.758E-01    1.83       1.0  T
   4    -30.3582738 -0.239447E-02  0.992E-02    1.75       1.0  T
   5    -30.3583116 -0.378113E-04  0.542E-02    1.74       1.0  T
   6    -30.3583243 -0.127272E-04  0.347E-02    1.74       1.0  T
   7    -30.3583356 -0.113060E-04  0.722E-03    1.75       3.3  T
   8    -30.3583360 -0.373275E-06  0.345E-03    1.75       6.8  T
   9    -30.3583361 -0.503545E-07  0.177E-03    1.75      13.3  T
  10    -30.3583361 -0.940779E-08  0.517E-04    1.75      45.6  T
  11    -30.3583361 -0.111599E-08  0.245E-04    1.75      96.0  T
     SCC iter.                  ...        0 min,  0.012 sec
     gradient                   ...        0 min,  0.009 sec
 * total energy  :   -29.9011663 Eh     change       -0.1686447E-02 Eh
   gradient norm :     0.1203549 Eh/α   predicted    -0.6763610E-02 ( 301.06%)
   displ. norm   :     0.2990202 α      lambda       -0.8346887E-02
   maximum displ.:     0.1457909 α      in ANC's #7, #34, #40, ...

........................................................................
.............................. CYCLE   10 ..............................
........................................................................
   1    -30.3864115 -0.303864E+02  0.497E-01    1.75       0.0  T
   2    -30.3857072  0.704219E-03  0.405E-01    1.79       1.0  T
   3    -30.3868735 -0.116630E-02  0.243E-01    1.76       1.0  T
   4    -30.3873624 -0.488891E-03  0.387E-02    1.80       1.0  T
   5    -30.3873762 -0.137486E-04  0.142E-02    1.78       1.7  T
   6    -30.3873777 -0.148657E-05  0.579E-03    1.79       4.1  T
   7    -30.3873777  0.709412E-08  0.305E-03    1.79       7.7  T
   8    -30.3873778 -0.982976E-07  0.119E-03    1.79      19.9  T
   9    -30.3873778  0.833076E-10  0.619E-04    1.79      38.1  T
  10    -30.3873778 -0.355974E-08  0.140E-04    1.79     168.3  T
     SCC iter.                  ...        0 min,  0.011 sec
     gradient                   ...        0 min,  0.010 sec
 * total energy  :   -29.9045976 Eh     change       -0.3431215E-02 Eh
   gradient norm :     0.0291289 Eh/α   predicted    -0.4546607E-02 (  32.51%)
   displ. norm   :     0.2559452 α      lambda       -0.2437067E-02
   maximum displ.:     0.1160931 α      in ANC's #2, #3, #11, ...

........................................................................
.............................. CYCLE   11 ..............................
........................................................................
   1    -30.3813392 -0.303813E+02  0.248E-01    1.80       0.0  T
   2    -30.3812400  0.992073E-04  0.190E-01    1.79       1.0  T
   3    -30.3813925 -0.152497E-03  0.123E-01    1.81       1.0  T
   4    -30.3815287 -0.136139E-03  0.291E-02    1.79       1.0  T
   5    -30.3815391 -0.104349E-04  0.123E-02    1.80       1.9  T
   6    -30.3815405 -0.142743E-05  0.419E-03    1.80       5.6  T
   7    -30.3815405  0.841470E-08  0.198E-03    1.80      11.9  T
   8    -30.3815406 -0.440105E-07  0.592E-04    1.80      39.8  T
   9    -30.3815406 -0.276366E-10  0.311E-04    1.80      75.9  T
     SCC iter.                  ...        0 min,  0.010 sec
     gradient                   ...        0 min,  0.009 sec
 * total energy  :   -29.9053991 Eh     change       -0.8015714E-03 Eh
   gradient norm :     0.0336246 Eh/α   predicted    -0.1298354E-02 (  61.98%)
   displ. norm   :     0.6037372 α      lambda       -0.7344589E-02
   maximum displ.:     0.3638788 α      in ANC's #3, #13, #11, ...

........................................................................
.............................. CYCLE   12 ..............................
........................................................................
   1    -30.3805105 -0.303805E+02  0.712E-01    1.87       0.0  T
   2    -30.3788317  0.167877E-02  0.562E-01    1.84       1.0  T
   3    -30.3811851 -0.235343E-02  0.369E-01    1.87       1.0  T
   4    -30.3822826 -0.109749E-02  0.943E-02    1.83       1.0  T
   5    -30.3824162 -0.133534E-03  0.219E-02    1.85       1.1  T
   6    -30.3824207 -0.451702E-05  0.983E-03    1.85       2.4  T
   7    -30.3824212 -0.526432E-06  0.380E-03    1.85       6.2  T
   8    -30.3824213 -0.841684E-07  0.150E-03    1.85      15.7  T
   9    -30.3824213 -0.695668E-08  0.792E-04    1.85      29.8  T
  10    -30.3824213 -0.199244E-08  0.216E-04    1.85     109.2  T
     SCC iter.                  ...        0 min,  0.011 sec
     gradient                   ...        0 min,  0.009 sec
 * total energy  :   -29.9088710 Eh     change       -0.3471919E-02 Eh
   gradient norm :     0.0714860 Eh/α   predicted    -0.5010811E-02 (  44.32%)
   displ. norm   :     0.2107901 α      lambda       -0.3143951E-02
   maximum displ.:     0.0997887 α      in ANC's #7, #11, #9, ...

........................................................................
.............................. CYCLE   13 ..............................
........................................................................
   1    -30.3946771 -0.303947E+02  0.163E-01    1.85       0.0  T
   2    -30.3946772 -0.673795E-07  0.117E-01    1.81       1.0  T
   3    -30.3947388 -0.616802E-04  0.727E-02    1.83       1.0  T
   4    -30.3947675 -0.286738E-04  0.332E-02    1.82       1.0  T
   5    -30.3947836 -0.160778E-04  0.139E-02    1.82       1.7  T
   6    -30.3947853 -0.174408E-05  0.417E-03    1.82       5.7  T
   7    -30.3947854 -0.562667E-07  0.142E-03    1.82      16.6  T
   8    -30.3947854 -0.189520E-07  0.381E-04    1.82      61.9  T
   9    -30.3947854 -0.181778E-09  0.183E-04    1.82     128.5  T
     SCC iter.                  ...        0 min,  0.010 sec
     gradient                   ...        0 min,  0.009 sec
 * total energy  :   -29.9111996 Eh     change       -0.2328602E-02 Eh
   gradient norm :     0.0348475 Eh/α   predicted    -0.1641821E-02 ( -29.49%)
   displ. norm   :     0.4673385 α      lambda       -0.3138638E-02
   maximum displ.:     0.2849308 α      in ANC's #3, #11, #9, ...

........................................................................
.............................. CYCLE   14 ..............................
........................................................................
   1    -30.4021824 -0.304022E+02  0.359E-01    1.83       0.0  T
   2    -30.4019800  0.202341E-03  0.250E-01    1.77       1.0  T
   3    -30.4021248 -0.144774E-03  0.193E-01    1.81       1.0  T
   4    -30.4025110 -0.386143E-03  0.315E-02    1.79       1.0  T
   5    -30.4025213 -0.103576E-04  0.137E-02    1.79       1.7  T
   6    -30.4025229 -0.158429E-05  0.475E-03    1.79       5.0  T
   7    -30.4025231 -0.171614E-06  0.127E-03    1.79      18.6  T
   8    -30.4025231 -0.110775E-07  0.548E-04    1.79      43.0  T
   9    -30.4025231 -0.337106E-09  0.257E-04    1.79      91.9  T
     SCC iter.                  ...        0 min,  0.010 sec
     gradient                   ...        0 min,  0.009 sec
 * total energy  :   -29.9136404 Eh     change       -0.2440795E-02 Eh
   gradient norm :     0.0166888 Eh/α   predicted    -0.1912076E-02 ( -21.66%)
   displ. norm   :     0.6259155 α      lambda       -0.2862670E-02
   maximum displ.:     0.4747442 α      in ANC's #3, #11, #9, ...

........................................................................
.............................. CYCLE   15 ..............................
........................................................................
   1    -30.4023870 -0.304024E+02  0.421E-01    1.80       0.0  T
   2    -30.4021497  0.237261E-03  0.284E-01    1.76       1.0  T
   3    -30.4020497  0.100068E-03  0.238E-01    1.79       1.0  T
   4    -30.4027250 -0.675383E-03  0.186E-02    1.77       1.3  T
   5    -30.4027281 -0.302100E-05  0.982E-03    1.77       2.4  T
   6    -30.4027288 -0.768539E-06  0.337E-03    1.77       7.0  T
   7    -30.4027289 -0.819023E-07  0.145E-03    1.77      16.3  T
   8    -30.4027289 -0.120491E-07  0.769E-04    1.77      30.7  T
   9    -30.4027289 -0.625882E-09  0.279E-04    1.77      84.5  T
     SCC iter.                  ...        0 min,  0.010 sec
     gradient                   ...        0 min,  0.010 sec
 * total energy  :   -29.9160101 Eh     change       -0.2369613E-02 Eh
   gradient norm :     0.0160159 Eh/α   predicted    -0.1992087E-02 ( -15.93%)
   displ. norm   :     0.7176505 α      lambda       -0.2850280E-02
   maximum displ.:     0.5955698 α      in ANC's #3, #7, #11, ...

........................................................................
.............................. CYCLE   16 ..............................
........................................................................
   1    -30.4048721 -0.304049E+02  0.361E-01    1.78       0.0  T
   2    -30.4047794  0.927142E-04  0.232E-01    1.75       1.0  T
   3    -30.4044838  0.295540E-03  0.205E-01    1.77       1.0  T
   4    -30.4050504 -0.566561E-03  0.171E-02    1.76       1.4  T
   5    -30.4050530 -0.262273E-05  0.843E-03    1.76       2.8  T
   6    -30.4050535 -0.521259E-06  0.355E-03    1.76       6.6  T
   7    -30.4050536 -0.862813E-07  0.136E-03    1.76      17.3  T
   8    -30.4050536 -0.971652E-08  0.714E-04    1.76      33.0  T
   9    -30.4050536 -0.666766E-09  0.258E-04    1.76      91.3  T
     SCC iter.                  ...        0 min,  0.010 sec
     gradient                   ...        0 min,  0.009 sec
 * total energy  :   -29.9182426 Eh     change       -0.2232516E-02 Eh
   gradient norm :     0.0222031 Eh/α   predicted    -0.2159129E-02 (  -3.29%)
   displ. norm   :     0.7249896 α      lambda       -0.2621261E-02
   maximum displ.:     0.5423543 α      in ANC's #3, #7, #11, ...

........................................................................
.............................. CYCLE   17 ..............................
........................................................................
   1    -30.3886911 -0.303887E+02  0.533E-01    1.78       0.0  T
   2    -30.3884704  0.220771E-03  0.341E-01    1.74       1.0  T
   3    -30.3876219  0.848474E-03  0.319E-01    1.76       1.0  T
   4    -30.3890594 -0.143747E-02  0.390E-02    1.75       1.0  T
   5    -30.3890755 -0.161525E-04  0.189E-02    1.75       1.2  T
   6    -30.3890785 -0.301678E-05  0.618E-03    1.75       3.8  T
   7    -30.3890788 -0.264251E-06  0.270E-03    1.75       8.7  T
   8    -30.3890788 -0.319176E-07  0.144E-03    1.75      16.4  T
   9    -30.3890788 -0.179185E-08  0.584E-04    1.75      40.4  T
  10    -30.3890788 -0.112602E-08  0.189E-04    1.75     124.6  T
     SCC iter.                  ...        0 min,  0.011 sec
     gradient                   ...        0 min,  0.009 sec
 * total energy  :   -29.9192536 Eh     change       -0.1011032E-02 Eh
   gradient norm :     0.0514057 Eh/α   predicted    -0.1999524E-02 (  97.77%)
   displ. norm   :     0.3673717 α      lambda       -0.2975688E-02
   maximum displ.:     0.3068407 α      in ANC's #3, #7, #34, ...

........................................................................
.............................. CYCLE   18 ..............................
........................................................................
   1    -30.4081021 -0.304081E+02  0.146E-01    1.78       0.0  T
   2    -30.4081184 -0.162730E-04  0.837E-02    1.77       1.0  T
   3    -30.4080647  0.536787E-04  0.690E-02    1.77       1.0  T
   4    -30.4081305 -0.658528E-04  0.162E-02    1.78       1.5  T
   5    -30.4081339 -0.339313E-05  0.494E-03    1.77       4.8  T
   6    -30.4081341 -0.152058E-06  0.208E-03    1.77      11.3  T
   7    -30.4081341 -0.135331E-07  0.967E-04    1.77      24.4  T
   8    -30.4081341 -0.973981E-08  0.282E-04    1.77      83.5  T
     SCC iter.                  ...        0 min,  0.009 sec
     gradient                   ...        0 min,  0.009 sec
 * total energy  :   -29.9208283 Eh     change       -0.1574710E-02 Eh
   gradient norm :     0.0217812 Eh/α   predicted    -0.1688641E-02 (   7.24%)
   displ. norm   :     0.3503348 α      lambda       -0.1011884E-02
   maximum displ.:     0.3031436 α      in ANC's #3, #7, #11, ...

........................................................................
.............................. CYCLE   19 ..............................
........................................................................
   1    -30.4081024 -0.304081E+02  0.157E-01    1.78       0.0  T
   2    -30.4081106 -0.816857E-05  0.924E-02    1.78       1.0  T
   3    -30.4080629  0.476825E-04  0.619E-02    1.79       1.0  T
   4    -30.4081160 -0.531317E-04  0.154E-02    1.78       1.5  T
   5    -30.4081203 -0.430693E-05  0.431E-03    1.78       5.5  T
   6    -30.4081204 -0.115686E-06  0.193E-03    1.78      12.2  T
   7    -30.4081205 -0.385440E-07  0.634E-04    1.78      37.2  T
   8    -30.4081205 -0.237308E-08  0.279E-04    1.78      84.6  T
     SCC iter.                  ...        0 min,  0.009 sec
     gradient                   ...        0 min,  0.009 sec
 * total energy  :   -29.9216545 Eh     change       -0.8262095E-03 Eh
   gradient norm :     0.0144375 Eh/α   predicted    -0.5680346E-03 ( -31.25%)
   displ. norm   :     0.4444004 α      lambda       -0.1281738E-02
   maximum displ.:     0.3621669 α      in ANC's #3, #7, #2, ...

........................................................................
.............................. CYCLE   20 ..............................
........................................................................
   1    -30.4134327 -0.304134E+02  0.212E-01    1.81       0.0  T
   2    -30.4134636 -0.309439E-04  0.135E-01    1.78       1.0  T
   3    -30.4134347  0.289438E-04  0.784E-02    1.80       1.0  T
   4    -30.4134928 -0.580686E-04  0.209E-02    1.79       1.1  T
   5    -30.4134972 -0.441961E-05  0.745E-03    1.78       3.2  T
   6    -30.4134973 -0.121911E-06  0.546E-03    1.78       4.3  T
   7    -30.4134978 -0.460598E-06  0.921E-04    1.78      25.6  T
   8    -30.4134978 -0.513683E-08  0.406E-04    1.78      58.0  T
     SCC iter.                  ...        0 min,  0.009 sec
     gradient                   ...        0 min,  0.010 sec
 * total energy  :   -29.9224492 Eh     change       -0.7946640E-03 Eh
   gradient norm :     0.0105517 Eh/α   predicted    -0.7674350E-03 (  -3.43%)
   displ. norm   :     0.6988811 α      lambda       -0.9739787E-03
   maximum displ.:     0.6072020 α      in ANC's #3, #7, #11, ...
 * RMSD in coord.:     1.1204575 α      energy gain  -0.5070081E-01 Eh

generating ANC from model Hessian ...
Using Lindh-Hessian (1995)
 Shifting diagonal of input Hessian by   9.312969205952239E-003
 Lowest  eigenvalues of input Hessian
    0.000000    0.000000    0.000000    0.000000    0.000000    0.000000
    0.010000    0.010343    0.010679    0.013010    0.015095    0.017213
    0.023085    0.025909    0.035492    0.043583    0.045788    0.065849
 Highest eigenvalues
    1.774894    1.827395    2.006631    2.025844    2.085162    2.579167
 

........................................................................
.............................. CYCLE   21 ..............................
........................................................................
   1    -30.4019630 -0.304020E+02  0.299E-01    1.78       0.0  T
   2    -30.4019385  0.244956E-04  0.187E-01    1.76       1.0  T
   3    -30.4015992  0.339305E-03  0.164E-01    1.78       1.0  T
   4    -30.4020358 -0.436638E-03  0.210E-02    1.77       1.1  T
   5    -30.4020412 -0.540750E-05  0.782E-03    1.77       3.0  T
   6    -30.4020415 -0.223429E-06  0.341E-03    1.77       6.9  T
   7    -30.4020416 -0.133955E-06  0.939E-04    1.77      25.1  T
   8    -30.4020416 -0.235404E-08  0.409E-04    1.77      57.6  T
     SCC iter.                  ...        0 min,  0.009 sec
     gradient                   ...        0 min,  0.009 sec
 * total energy  :   -29.9228026 Eh     change       -0.3534133E-03 Eh
   gradient norm :     0.0174314 Eh/α   predicted     0.0000000E+00 (-100.00%)
   displ. norm   :     0.0841235 α      lambda       -0.6479654E-03
   maximum displ.:     0.0486706 α      in ANC's #2, #10, #8, ...

........................................................................
.............................. CYCLE   22 ..............................
........................................................................
   1    -30.4132516 -0.304133E+02  0.753E-02    1.80       0.0  T
   2    -30.4132530 -0.131144E-05  0.517E-02    1.78       1.0  T
   3    -30.4132539 -0.911323E-06  0.339E-02    1.78       1.0  T
   4    -30.4132643 -0.104654E-04  0.141E-02    1.78       1.7  T
   5    -30.4132665 -0.217006E-05  0.314E-03    1.78       7.5  T
   6    -30.4132666 -0.601999E-07  0.174E-03    1.78      13.5  T
   7    -30.4132666 -0.210694E-07  0.618E-04    1.78      38.2  T
   8    -30.4132666 -0.320039E-08  0.243E-04    1.78      96.9  T
     SCC iter.                  ...        0 min,  0.009 sec
     gradient                   ...        0 min,  0.009 sec
 * total energy  :   -29.9231937 Eh     change       -0.3911328E-03 Eh
   gradient norm :     0.0050805 Eh/α   predicted    -0.3262768E-03 ( -16.58%)
   displ. norm   :     0.0751862 α      lambda       -0.9675276E-04
   maximum displ.:     0.0624065 α      in ANC's #2, #1, #8, ...

........................................................................
.............................. CYCLE   23 ..............................
........................................................................
   1    -30.4158915 -0.304159E+02  0.420E-02    1.79       0.0  T
   2    -30.4158932 -0.168033E-05  0.249E-02    1.78       1.0  T
   3    -30.4158924  0.783866E-06  0.150E-02    1.79       1.6  T
   4    -30.4158937 -0.136195E-05  0.668E-03    1.78       3.5  T
   5    -30.4158943 -0.567636E-06  0.188E-03    1.78      12.5  T
   6    -30.4158943 -0.213343E-07  0.115E-03    1.78      20.5  T
   7    -30.4158944 -0.159852E-07  0.274E-04    1.78      86.0  T
   8    -30.4158944 -0.611657E-09  0.102E-04    1.78     230.0  T
     SCC iter.                  ...        0 min,  0.009 sec
     gradient                   ...        0 min,  0.009 sec
 * total energy  :   -29.9232586 Eh     change       -0.6485583E-04 Eh
   gradient norm :     0.0017960 Eh/α   predicted    -0.4865158E-04 ( -24.99%)
   displ. norm   :     0.1213642 α      lambda       -0.4978238E-04
   maximum displ.:     0.1021549 α      in ANC's #2, #1, #8, ...

........................................................................
.............................. CYCLE   24 ..............................
........................................................................
   1    -30.4169269 -0.304169E+02  0.633E-02    1.80       0.0  T
   2    -30.4169291 -0.214419E-05  0.368E-02    1.78       1.0  T
   3    -30.4169264  0.261853E-05  0.214E-02    1.79       1.1  T
   4    -30.4169304 -0.393933E-05  0.555E-03    1.79       4.2  T
   5    -30.4169307 -0.369587E-06  0.254E-03    1.78       9.3  T
   6    -30.4169308 -0.409294E-07  0.137E-03    1.78      17.3  T
   7    -30.4169308 -0.269829E-07  0.261E-04    1.78      90.4  T
   8    -30.4169308 -0.805990E-09  0.793E-05    1.78     297.2  T
     SCC iter.                  ...        0 min,  0.009 sec
     gradient                   ...        0 min,  0.009 sec
 * total energy  :   -29.9233143 Eh     change       -0.5574689E-04 Eh
   gradient norm :     0.0030786 Eh/α   predicted    -0.2505352E-04 ( -55.06%)
   displ. norm   :     0.0892537 α      lambda       -0.4904433E-04
   maximum displ.:     0.0707395 α      in ANC's #2, #1, #8, ...

........................................................................
.............................. CYCLE   25 ..............................
........................................................................
   1    -30.4163108 -0.304163E+02  0.487E-02    1.79       0.0  T
   2    -30.4163112 -0.372294E-06  0.290E-02    1.78       1.0  T
   3    -30.4163063  0.488204E-05  0.200E-02    1.79       1.2  T
   4    -30.4163121 -0.577238E-05  0.500E-03    1.78       4.7  T
   5    -30.4163124 -0.356729E-06  0.176E-03    1.78      13.4  T
   6    -30.4163125 -0.138691E-07  0.801E-04    1.78      29.4  T
   7    -30.4163125 -0.827461E-08  0.130E-04    1.78     181.7  T
     SCC iter.                  ...        0 min,  0.008 sec
     gradient                   ...        0 min,  0.009 sec
 * total energy  :   -29.9233539 Eh     change       -0.3960587E-04 Eh
   gradient norm :     0.0025329 Eh/α   predicted    -0.2471794E-04 ( -37.59%)
   displ. norm   :     0.1079917 α      lambda       -0.4980698E-04
   maximum displ.:     0.0879098 α      in ANC's #2, #1, #3, ...

........................................................................
.............................. CYCLE   26 ..............................
........................................................................
   1    -30.4150391 -0.304150E+02  0.529E-02    1.78       0.0  T
   2    -30.4150393 -0.201977E-06  0.316E-02    1.78       1.0  T
   3    -30.4150315  0.776136E-05  0.236E-02    1.78       1.0  T
   4    -30.4150406 -0.902915E-05  0.462E-03    1.78       5.1  T
   5    -30.4150408 -0.277655E-06  0.173E-03    1.78      13.6  T
   6    -30.4150409 -0.132099E-07  0.744E-04    1.78      31.7  T
   7    -30.4150409 -0.688889E-08  0.160E-04    1.78     147.5  T
     SCC iter.                  ...        0 min,  0.008 sec
     gradient                   ...        0 min,  0.009 sec
 * total energy  :   -29.9233922 Eh     change       -0.3825616E-04 Eh
   gradient norm :     0.0020397 Eh/α   predicted    -0.2519437E-04 ( -34.14%)
   displ. norm   :     0.0992433 α      lambda       -0.3092309E-04
   maximum displ.:     0.0793929 α      in ANC's #2, #1, #3, ...

........................................................................
.............................. CYCLE   27 ..............................
........................................................................
   1    -30.4146229 -0.304146E+02  0.522E-02    1.78       0.0  T
   2    -30.4146232 -0.239284E-06  0.309E-02    1.78       1.0  T
   3    -30.4146171  0.609550E-05  0.201E-02    1.78       1.2  T
   4    -30.4146238 -0.675295E-05  0.375E-03    1.78       6.3  T
   5    -30.4146240 -0.195632E-06  0.144E-03    1.78      16.4  T
   6    -30.4146240 -0.110765E-07  0.629E-04    1.78      37.4  T
   7    -30.4146241 -0.503966E-08  0.126E-04    1.78     186.8  T
     SCC iter.                  ...        0 min,  0.008 sec
     gradient                   ...        0 min,  0.009 sec
 * total energy  :   -29.9234177 Eh     change       -0.2550234E-04 Eh
   gradient norm :     0.0020095 Eh/α   predicted    -0.1561345E-04 ( -38.78%)
   displ. norm   :     0.1104831 α      lambda       -0.3049029E-04
   maximum displ.:     0.0894463 α      in ANC's #2, #1, #3, ...

........................................................................
.............................. CYCLE   28 ..............................
........................................................................
   1    -30.4147084 -0.304147E+02  0.605E-02    1.79       0.0  T
   2    -30.4147087 -0.303008E-06  0.358E-02    1.78       1.0  T
   3    -30.4147017  0.703688E-05  0.214E-02    1.79       1.1  T
   4    -30.4147094 -0.769034E-05  0.388E-03    1.78       6.1  T
   5    -30.4147096 -0.215492E-06  0.150E-03    1.78      15.7  T
   6    -30.4147096 -0.124470E-07  0.676E-04    1.78      34.9  T
   7    -30.4147096 -0.563053E-08  0.136E-04    1.78     173.0  T
     SCC iter.                  ...        0 min,  0.008 sec
     gradient                   ...        0 min,  0.009 sec
 * total energy  :   -29.9234419 Eh     change       -0.2422085E-04 Eh
   gradient norm :     0.0016821 Eh/α   predicted    -0.1543310E-04 ( -36.28%)
   displ. norm   :     0.1903322 α      lambda       -0.2636462E-04
   maximum displ.:     0.1558890 α      in ANC's #2, #1, #3, ...

........................................................................
.............................. CYCLE   29 ..............................
........................................................................
   1    -30.4151142 -0.304151E+02  0.112E-01    1.79       0.0  T
   2    -30.4151152 -0.103395E-05  0.661E-02    1.78       1.0  T
   3    -30.4150935  0.217785E-04  0.378E-02    1.79       1.0  T
   4    -30.4151172 -0.236986E-04  0.697E-03    1.78       3.4  T
   5    -30.4151179 -0.694740E-06  0.270E-03    1.78       8.7  T
   6    -30.4151179 -0.434271E-07  0.123E-03    1.78      19.2  T
   7    -30.4151179 -0.177669E-07  0.253E-04    1.78      93.0  T
   8    -30.4151179 -0.252243E-09  0.129E-04    1.78     183.2  T
     SCC iter.                  ...        0 min,  0.009 sec
     gradient                   ...        0 min,  0.009 sec
 * total energy  :   -29.9234616 Eh     change       -0.1962986E-04 Eh
   gradient norm :     0.0012588 Eh/α   predicted    -0.1339358E-04 ( -31.77%)
   displ. norm   :     0.0159856 α      lambda       -0.2879826E-05
   maximum displ.:     0.0138186 α      in ANC's #1, #6, #10, ...

........................................................................
.............................. CYCLE   30 ..............................
........................................................................
   1    -30.4158894 -0.304159E+02  0.891E-03    1.78       0.0  T
   2    -30.4158894 -0.552961E-07  0.507E-03    1.78       4.6  T
   3    -30.4158894  0.525548E-07  0.281E-03    1.78       8.4  T
   4    -30.4158894 -0.547209E-07  0.127E-03    1.78      18.6  T
   5    -30.4158895 -0.223134E-07  0.374E-04    1.78      63.0  T
   6    -30.4158895 -0.645482E-09  0.196E-04    1.78     120.3  T
     SCC iter.                  ...        0 min,  0.007 sec
     gradient                   ...        0 min,  0.009 sec
 * total energy  :   -29.9234642 Eh     change       -0.2685714E-05 Eh
   gradient norm :     0.0006306 Eh/α   predicted    -0.1441103E-05 ( -46.34%)
   displ. norm   :     0.0164842 α      lambda       -0.1497224E-05
   maximum displ.:     0.0106489 α      in ANC's #1, #3, #8, ...

   *** GEOMETRY OPTIMIZATION CONVERGED AFTER 30 ITERATIONS ***

------------------------------------------------------------------------
 total energy gain   :        -0.0517159 Eh      -32.4522 kcal/mol
 total RMSD          :         1.2765199 a0        0.6755 Å
 total power (kW/mol):        -4.5259990 (step) -183.7567 (real)
------------------------------------------------------------------------

 ANCopt (total)                0 d,  0 h,  0 min,  0.739 sec
 optimizer setup                ...        0 min,  0.001 sec (  0.069%)
 model hessian                  ...        0 min,  0.004 sec (  0.594%)
 ANC generation                 ...        0 min,  0.001 sec (  0.189%)
 coordinate transformation      ...        0 min,  0.000 sec (  0.060%)
 single point calculation       ...        0 min,  0.718 sec ( 97.119%)
 optimization log               ...        0 min,  0.006 sec (  0.785%)
 hessian update                 ...        0 min,  0.000 sec (  0.057%)
 rational function              ...        0 min,  0.006 sec (  0.844%)

================
 final structure:
================
18
 xtb: 6.4.1 (afa7bdf)
C         3.57689675372414   -0.40034695755872   -1.27186025569611
C         2.35269170094638   -0.23429851329000   -0.50974763368261
C         1.33009470716536   -0.09400725556982    0.10919475029326
C         0.15725642762548    0.07964569020996    0.87504280055255
C        -1.09901468150046   -0.04524429427741    0.19096652652201
N        -1.17745639050188   -0.33840630499664   -1.11010151032361
N        -2.49122522951817   -0.37227283702175   -1.40494028311419
C        -3.26225982128385   -0.10704382538534   -0.32392262249013
C        -2.41403155029852    0.10900411750974    0.72389158684442
C         0.22932500380872    0.35857562917578    2.21981909165774
S         1.61524515120594    0.53232810610019    3.15463413067305
H         4.31944741996027   -0.94194076953778   -0.68140041370483
H         3.38109044254040   -0.96266148556224   -2.18876221132607
H         3.99578821442332    0.57249578632538   -1.54360163497454
H        -2.78571788593533   -0.57691467352405   -2.34473738624095
H        -4.33494343947356   -0.09376849064445   -0.38902792045653
H        -2.68588039101563    0.34623342451475    1.73274675921411
H        -0.70730543187275    0.48298165353225    2.76180722625253
 
 Bond Distances (Angstroems)
 ---------------------------
C1-C2=1.4516         C1-H12=1.0924        C1-H13=1.0933        C1-H14=1.0935        C2-C1=1.4516         C2-C3=1.2035         
C3-C2=1.2035         C3-C4=1.4115         C4-C3=1.4115         C4-C5=1.4359         C4-C10=1.3753        C5-C4=1.4359         
C5-N6=1.3360         C5-C9=1.4273         N6-C5=1.3360         N6-N7=1.3469         N7-N6=1.3469         N7-C8=1.3540         
N7-H15=1.0059        C8-N7=1.3540         C8-C9=1.3653         C8-H16=1.0747        C9-C5=1.4273         C9-C8=1.3653         
C9-H17=1.0714        C10-C4=1.3753        C10-S11=1.6807       C10-H18=1.0893       S11-C10=1.6807       H12-C1=1.0924        
H13-C1=1.0933        H14-C1=1.0935        H15-N7=1.0059        H16-C8=1.0747        H17-C9=1.0714        H18-C10=1.0893       
 C  H  Rav=1.0858 sigma=0.0091  Rmin=1.0714  Rmax=1.0935     6
 C  C  Rav=1.3815 sigma=0.0782  Rmin=1.2035  Rmax=1.4516     7
 N  H  Rav=1.0059 sigma=0.0000  Rmin=1.0059  Rmax=1.0059     1
 N  C  Rav=1.3450 sigma=0.0090  Rmin=1.3360  Rmax=1.3540     2
 N  N  Rav=1.3469 sigma=0.0000  Rmin=1.3469  Rmax=1.3469     1
 S  C  Rav=1.6807 sigma=0.0000  Rmin=1.6807  Rmax=1.6807     1
 
 selected bond angles (degree)
 --------------------
H12-C1-C2=110.25               H13-C1-C2=110.37               H13-C1-H12=108.67              H14-C1-C2=110.60               
H14-C1-H12=108.36              H14-C1-H13=108.53              C3-C2-C1=179.28                C4-C3-C2=178.02                
C5-C4-C3=117.24                C10-C4-C3=120.79               C10-C4-C5=121.96               N6-C5-C4=122.30                
C9-C5-C4=128.23                C9-C5-N6=109.47                N7-N6-C5=106.02                C8-N7-N6=112.07                
H15-N7-N6=119.68               H15-N7-C8=128.25               C9-C8-N7=106.85                H16-C8-N7=121.49               
H16-C8-C9=131.65               C8-C9-C5=105.59                H17-C9-C5=127.54               H17-C9-C8=126.87               
S11-C10-C4=127.45              H18-C10-C4=117.69              H18-C10-S11=114.87             
 
 selected dihedral angles (degree)
 ---------------------------------
C3-C2-C1-H12=199.30           C3-C2-C1-H13=319.36           C3-C2-C1-H14= 79.47           C4-C3-C2-C1=200.90            
C5-C4-C3-C2=178.61            C10-C4-C3-C2=358.70           N6-C5-C4-C3=  1.26            N6-C5-C4-C10=181.16           
C9-C5-C4-C3=181.34            C9-C5-C4-C10=  1.25           N7-N6-C5-C4=180.06            N7-N6-C5-C9=  0.00            
C8-N7-N6-C5=  0.03            H15-N7-N6-C5=179.93           C9-C8-N7-N6=359.97            C9-C8-N7-H15=180.08           
H16-C8-N7-N6=179.94           H16-C8-N7-H15=  0.05          C8-C9-C5-C4=179.92            C8-C9-C5-N6=  0.00            
H17-C9-C5-C4=  0.00           H17-C9-C5-N6=180.10           C5-C9-C8-N7=  0.00            C5-C9-C8-H16=180.05           
H17-C9-C8-N7=179.92           H17-C9-C8-H16=359.95          S11-C10-C4-C3=359.84          S11-C10-C4-C5=179.94          
H18-C10-C4-C3=179.99          H18-C10-C4-C5=  0.09          
           -------------------------------------------------
          |                Final Singlepoint                |
           -------------------------------------------------

          ...................................................
          :                      SETUP                      :
          :.................................................:
          :  # basis functions                  57          :
          :  # atomic orbitals                  56          :
          :  # shells                           30          :
          :  # electrons                        56          :
          :  max. iterations                   250          :
          :  Hamiltonian                  GFN2-xTB          :
          :  restarted?                      false          :
          :  GBSA solvation                  false          :
          :  PC potential                    false          :
          :  electronic temp.          300.0000000     K    :
          :  accuracy                    1.0000000          :
          :  -> integral cutoff          0.2500000E+02      :
          :  -> integral neglect         0.1000000E-07      :
          :  -> SCF convergence          0.1000000E-05 Eh   :
          :  -> wf. convergence          0.1000000E-03 e    :
          :  Broyden damping             0.4000000          :
          ...................................................

 iter      E             dE          RMSdq      gap      omega  full diag
   1    -30.4158895 -0.304159E+02  0.562E-05    1.78       0.0  T
   2    -30.4158895 -0.120437E-10  0.446E-05    1.78     528.7  T
   3    -30.4158895 -0.239595E-10  0.169E-05    1.78    1391.6  T

   *** convergence criteria satisfied after 3 iterations ***

         #    Occupation            Energy/Eh            Energy/eV
      -------------------------------------------------------------
         1        2.0000           -0.5544281             -15.0868
       ...           ...                  ...                  ...
        22        2.0000           -0.2637396              -7.1767
        23        2.0000           -0.2541036              -6.9145
        24        2.0000           -0.2487459              -6.7687
        25        2.0000           -0.2337951              -6.3619
        26        2.0000           -0.2276989              -6.1960
        27        2.0000           -0.1591785              -4.3315
        28        2.0000           -0.1499424              -4.0801 (HOMO)
        29                         -0.0843916              -2.2964 (LUMO)
        30                         -0.0621389              -1.6909
        31                         -0.0064791              -0.1763
        32                          0.0136199               0.3706
        33                          0.0525021               1.4287
       ...                                ...                  ...
        56                          1.5872879              43.1923
      -------------------------------------------------------------
                  HL-Gap            0.0655508 Eh            1.7837 eV
             Fermi-level           -0.1171670 Eh           -3.1883 eV
 
 localization/xTB-IFF output generation
 averaging CT terms over            2  occ. levels
 averaging CT terms over            1  virt. levels
 dipole moment from electron density (au)
     X       Y       Z   
  -2.5954  -0.5979  -3.9920  total (Debye):   12.198
cpu  time for init local    0.00 s
wall time for init local    0.00 s
 doing rotations ...
 initialization of trafo matrix to unity
iteration     50  convergence  0.34716270D-04

 converged in     69 iterations, threshold :   0.99773452D-06
 doing transformations ...
 lmo centers(Z=2) and atoms on file <lmocent.coord>
 LMO Fii/eV  ncent    charge center   contributions...
    1 sigma -13.23   1.95  -3.53761  -0.63603  -2.43164    7N :  0.57    6N :  0.44
    2 sigma -12.91   1.92  -5.40915  -0.32836  -1.84569    7N :  0.59    8C :  0.42
    3 sigma -12.72   1.97  -5.06292  -0.93309  -3.75231    7N :  0.56   15H :  0.44
    4 sigma -11.35   2.01  -7.53154  -0.18533  -0.69567   16H :  0.51    8C :  0.49
    5 sigma -10.65   1.98   5.61476  -0.60129  -1.69395    1C :  0.52    2C :  0.48
    6 sigma -10.63   2.00  -3.30744   0.08976   0.97603    9C :  0.52    5C :  0.48
    7 sigma -10.50   2.00   6.48308  -1.45647  -3.53251    1C :  0.50   13H :  0.50
    8 sigma -10.46   2.00   7.24955   0.46454  -2.72199    1C :  0.50   14H :  0.50
    9 sigma -10.42   2.00   7.65323  -1.42860  -1.64740    1C :  0.50   12H :  0.50
   10 sigma -10.35   2.01  -4.90146   0.50724   2.65012   17H :  0.51    9C :  0.49
   11 sigma -10.25   2.03  -0.90024   0.02966   0.99141    5C :  0.52    4C :  0.47
   12 sigma -10.05   2.02   1.43082  -0.02187   0.89696    3C :  0.52    4C :  0.48
   13 pi     -9.88   2.16  -5.23311   0.49883   0.30739    9C :  0.49    8C :  0.47
   14 pi     -9.83   2.17  -5.23703  -0.49181   0.53250    9C :  0.49    8C :  0.46
   15 pi     -9.78   2.10  -2.21784   0.05768  -1.09289    6N :  0.56    5C :  0.41
   16 pi     -9.76   1.56  -4.70150  -0.81522  -2.17964    7N :  0.79    8C :  0.12
   17 pi     -9.75   2.11  -2.24714  -0.83960  -0.88410    6N :  0.56    5C :  0.41
   18 sigma  -9.28   1.99  -0.77532   0.83663   4.88558   18H :  0.52   10C :  0.48
   19 delpi  -8.40   2.27   0.36943   0.81335   2.46822    4C :  0.53   10C :  0.39
   20 delpi  -8.39   2.27   0.35361  -0.13538   2.65822    4C :  0.53   10C :  0.39
   21 pi     -8.37   2.02   3.17739  -0.45616  -0.87386    2C :  0.51    3C :  0.49
   22 pi     -8.32   2.06   3.63221   0.25640  -0.25167    2C :  0.51    3C :  0.48
   23 pi     -8.31   2.05   3.66642  -0.72644   0.01523    2C :  0.51    3C :  0.48
   24 LP     -7.86   1.02   2.28329   1.61847   8.87692   11S :  0.99
   25 LP     -7.76   1.02  -0.94173  -0.96762  -3.39624    6N :  0.99
   26 LP     -7.75   1.03   5.65926   0.65716   4.44503   11S :  0.99
   27 pi     -7.69   1.84   2.06174   1.41327   5.12097   11S :  0.66   10C :  0.33
   28 pi     -7.68   1.84   2.04688   0.32521   5.34530   11S :  0.66   10C :  0.33
 starting deloc pi regularization ...
 thr    2.20000000000000      # pi deloc LMO           6
 files:
 coordprot.0/xtbscreen.xyz/xtblmoinfo/lmocent.coord
 with protonation site input, xtbdock and
 LMO center info written
 

 SCC (total)                   0 d,  0 h,  0 min,  0.036 sec
 SCC setup                      ...        0 min,  0.000 sec (  0.440%)
 Dispersion                     ...        0 min,  0.000 sec (  0.319%)
 classical contributions        ...        0 min,  0.000 sec (  0.097%)
 integral evaluation            ...        0 min,  0.004 sec ( 11.919%)
 iterations                     ...        0 min,  0.004 sec ( 11.219%)
 molecular gradient             ...        0 min,  0.010 sec ( 26.645%)
 printout                       ...        0 min,  0.018 sec ( 49.232%)

         :::::::::::::::::::::::::::::::::::::::::::::::::::::
         ::                     SUMMARY                     ::
         :::::::::::::::::::::::::::::::::::::::::::::::::::::
         :: total energy             -29.923464238563 Eh    ::
         :: gradient norm              0.000629121783 Eh/a0 ::
         :: HOMO-LUMO gap              1.783728174190 eV    ::
         ::.................................................::
         :: SCC energy               -30.415889465104 Eh    ::
         :: -> isotropic ES            0.117102648072 Eh    ::
         :: -> anisotropic ES          0.012982450207 Eh    ::
         :: -> anisotropic XC          0.022217398708 Eh    ::
         :: -> dispersion             -0.017067439177 Eh    ::
         :: repulsion energy           0.492425587573 Eh    ::
         :: add. restraining           0.000000000000 Eh    ::
         :: total charge              -1.000000000000 e     ::
         :::::::::::::::::::::::::::::::::::::::::::::::::::::

           -------------------------------------------------
          |                Property Printout                |
           -------------------------------------------------

    * Orbital Energies and Occupations

         #    Occupation            Energy/Eh            Energy/eV
      -------------------------------------------------------------
         1        2.0000           -0.5544281             -15.0868
       ...           ...                  ...                  ...
        16        2.0000           -0.3523709              -9.5885
        17        2.0000           -0.3465087              -9.4290
        18        2.0000           -0.3251904              -8.8489
        19        2.0000           -0.2990656              -8.1380
        20        2.0000           -0.2962823              -8.0623
        21        2.0000           -0.2689583              -7.3187
        22        2.0000           -0.2637396              -7.1767
        23        2.0000           -0.2541036              -6.9145
        24        2.0000           -0.2487459              -6.7687
        25        2.0000           -0.2337951              -6.3619
        26        2.0000           -0.2276989              -6.1960
        27        2.0000           -0.1591785              -4.3315
        28        2.0000           -0.1499424              -4.0801 (HOMO)
        29                         -0.0843916              -2.2964 (LUMO)
        30                         -0.0621389              -1.6909
        31                         -0.0064791              -0.1763
        32                          0.0136199               0.3706
        33                          0.0525021               1.4287
        34                          0.0915427               2.4910
        35                          0.1347940               3.6679
        36                          0.2005657               5.4577
        37                          0.2056101               5.5949
        38                          0.2062389               5.6120
        39                          0.2102609               5.7215
       ...                                ...                  ...
        56                          1.5872879              43.1923
      -------------------------------------------------------------
                  HL-Gap            0.0655508 Eh            1.7837 eV
             Fermi-level           -0.1171670 Eh           -3.1883 eV

     #   Z          covCN         q      C6AA      α(0)
     1   6 C        3.752    -0.064    21.791     6.657
     2   6 C        1.960    -0.087    33.461     9.342
     3   6 C        1.984    -0.031    31.888     9.119
     4   6 C        2.987    -0.040    28.975     8.830
     5   6 C        3.132     0.070    26.239     8.386
     6   7 N        1.985    -0.280    28.070     7.857
     7   7 N        2.969    -0.029    21.809     6.936
     8   6 C        2.981    -0.014    28.366     8.736
     9   6 C        3.018    -0.083    30.055     8.993
    10   6 C        2.900     0.063    26.581     8.453
    11  16 S        1.017    -0.644   168.682    21.966
    12   1 H        0.924     0.024     2.678     2.559
    13   1 H        0.924     0.016     2.795     2.615
    14   1 H        0.924     0.018     2.757     2.597
    15   1 H        0.860     0.125     1.580     1.969
    16   1 H        0.926    -0.010     3.240     2.815
    17   1 H        0.926    -0.002     3.088     2.748
    18   1 H        0.925    -0.032     3.673     2.997

 Mol. C6AA /au·bohr⁶  :       5947.099637
 Mol. C8AA /au·bohr⁸  :     165445.687916
 Mol. α(0) /au        :        123.575514


Wiberg/Mayer (AO) data.
largest (>0.10) Wiberg bond orders for each atom

 ---------------------------------------------------------------------------
     #   Z sym  total        # sym  WBO       # sym  WBO       # sym  WBO
 ---------------------------------------------------------------------------
     1   6 C    3.998 --     2 C    1.054    13 H    0.973    12 H    0.972
                            14 H    0.972
     2   6 C    3.969 --     3 C    2.729     1 C    1.054
     3   6 C    3.977 --     2 C    2.729     4 C    1.124
     4   6 C    3.962 --    10 C    1.478     5 C    1.125     3 C    1.124
                            11 S    0.134
     5   6 C    3.970 --     6 N    1.422     9 C    1.248     4 C    1.125
     6   7 N    2.919 --     5 C    1.422     7 N    1.156     8 C    0.155
     7   7 N    3.555 --     8 C    1.242     6 N    1.156    15 H    0.955
                             9 C    0.100
     8   6 C    3.949 --     9 C    1.561     7 N    1.242    16 H    0.969
                             6 N    0.155
     9   6 C    3.973 --     8 C    1.561     5 C    1.248    17 H    0.972
                             7 N    0.100
    10   6 C    3.975 --     4 C    1.478    11 S    1.369    18 H    0.964
    11  16 S    1.680 --    10 C    1.369     4 C    0.134
    12   1 H    0.999 --     1 C    0.972
    13   1 H    0.999 --     1 C    0.973
    14   1 H    0.996 --     1 C    0.972
    15   1 H    0.984 --     7 N    0.955
    16   1 H    0.999 --     8 C    0.969
    17   1 H    1.000 --     9 C    0.972
    18   1 H    0.998 --    10 C    0.964
 ---------------------------------------------------------------------------

Topologies differ in total number of bonds
Writing topology from bond orders to xtbtopo.mol

molecular dipole:
                 x           y           z       tot (Debye)
 q only:       -1.855      -0.555      -3.690
   full:       -2.595      -0.598      -3.992      12.198
molecular quadrupole (traceless):
                xx          xy          yy          xz          yz          zz
 q only:        2.327      -2.250      14.837     -14.166      -5.602     -17.163
  q+dip:        8.687      -3.277      11.617     -19.486      -5.399     -20.304
   full:        7.286      -2.827      13.977     -17.639      -6.172     -21.262

           -------------------------------------------------
          |                Geometry Summary                 |
           -------------------------------------------------

      molecular mass/u    :      163.2196663
   center of mass at/Å    :        0.0738825       0.0117857       0.5356794
  moments of inertia/u·Å² :        0.4003098E+03   0.7864509E+03   0.1183540E+04
rotational constants/cm⁻¹ :        0.4211147E-01   0.2143507E-01   0.1424340E-01

 * 16 selected distances

     #   Z          #   Z                                           value/Å
     2   6 C        3   6 C                                       1.2035265
     4   6 C        5   6 C                                       1.4358882
     5   6 C        6   7 N                                       1.3359922
     6   7 N        7   7 N                                       1.3468725
     7   7 N        8   6 C                                       1.3540458
     5   6 C        9   6 C                                       1.4272600
     8   6 C        9   6 C                                       1.3653141
     4   6 C       10   6 C                                       1.3752887
    10   6 C       11  16 S                                       1.6807271 (max)
     1   6 C       12   1 H                                       1.0924048
     1   6 C       13   1 H                                       1.0932735
     1   6 C       14   1 H                                       1.0934973
     7   7 N       15   1 H                                       1.0058940 (min)
     8   6 C       16   1 H                                       1.0747395
     9   6 C       17   1 H                                       1.0714328
    10   6 C       18   1 H                                       1.0892679

 * 6 distinct bonds (by element types)

   Z      Z             #   av. dist./Å        max./Å        min./Å
   1 H    6 C           6     1.0857693     1.0934973     1.0714328
   6 C    6 C           5     1.3614555     1.4358882     1.2035265
   1 H    7 N           1     1.0058940     1.0058940     1.0058940
   6 C    7 N           2     1.3450190     1.3540458     1.3359922
   7 N    7 N           1     1.3468725     1.3468725     1.3468725
   6 C   16 S           1     1.6807271     1.6807271     1.6807271


optimized geometry written to: xtbopt.xyz


           -------------------------------------------------
          | TOTAL ENERGY              -29.923464238563 Eh   |
          | GRADIENT NORM               0.000629121783 Eh/α |
          | HOMO-LUMO GAP               1.783728174190 eV   |
           -------------------------------------------------

------------------------------------------------------------------------
 * finished run on 2022/11/02 at 18:13:36.571     
------------------------------------------------------------------------
 total:
 * wall-time:     0 d,  0 h,  0 min,  0.917 sec
 *  cpu-time:     0 d,  0 h,  0 min,  0.848 sec
 * ratio c/w:     0.925 speedup
 SCF:
 * wall-time:     0 d,  0 h,  0 min,  0.055 sec
 *  cpu-time:     0 d,  0 h,  0 min,  0.048 sec
 * ratio c/w:     0.869 speedup
 ANC optimizer:
 * wall-time:     0 d,  0 h,  0 min,  0.797 sec
 *  cpu-time:     0 d,  0 h,  0 min,  0.772 sec
 * ratio c/w:     0.969 speedup

