18
 energy: -29.923464238563 gnorm: 0.000629121783 xtb: 6.4.1 (afa7bdf)
C         3.57689675372414   -0.40034695755872   -1.27186025569611
C         2.35269170094638   -0.23429851329000   -0.50974763368261
C         1.33009470716536   -0.09400725556982    0.10919475029326
C         0.15725642762548    0.07964569020996    0.87504280055255
C        -1.09901468150046   -0.04524429427741    0.19096652652201
N        -1.17745639050188   -0.33840630499664   -1.11010151032361
N        -2.49122522951817   -0.37227283702175   -1.40494028311419
C        -3.26225982128385   -0.10704382538534   -0.32392262249013
C        -2.41403155029852    0.10900411750974    0.72389158684442
C         0.22932500380872    0.35857562917578    2.21981909165774
S         1.61524515120594    0.53232810610019    3.15463413067305
H         4.31944741996027   -0.94194076953778   -0.68140041370483
H         3.38109044254040   -0.96266148556224   -2.18876221132607
H         3.99578821442332    0.57249578632538   -1.54360163497454
H        -2.78571788593533   -0.57691467352405   -2.34473738624095
H        -4.33494343947356   -0.09376849064445   -0.38902792045653
H        -2.68588039101563    0.34623342451475    1.73274675921411
H        -0.70730543187275    0.48298165353225    2.76180722625253
