name,smiles,pka_exp,pka_theor,ref,E_neutral,lst_smiles_deprot,lst_name_deprot,lst_E,lst_E_rel,lst_pKa,lst_atomsite,gfn_method,solvent_model,solvent_name,file
1-methyl-1H-indole,CN(C=C1)C2=C1C=CC=C2,37.3,37.7,5a,-16817.13322218995,"['CN1[C-]=CC2=C1C=CC=C2', 'CN1C=[C-]C2=C1C=CC=C2', 'CN1C=CC2=C1C=CC=[C-]2', 'CN1C=CC2=C1C=C[C-]=C2', 'CN1C=CC2=C1C=[C-]C=C2', 'CN1C=CC2=C1[C-]=CC=C2', '[CH2-]N1C=CC2=C1C=CC=C2']","['1-methyl-1H-indole#-1=3', '1-methyl-1H-indole#-1=4', '1-methyl-1H-indole#-1=7', '1-methyl-1H-indole#-1=8', '1-methyl-1H-indole#-1=9', '1-methyl-1H-indole#-1=10', '1-methyl-1H-indole#-1=1']","[-16613.47170340145, -16600.776422027724, -16599.83450764993, -16597.891084121944, -16599.810216972182, -16605.010467729975, -16622.425467777557]","[203.66151878849996, 216.35680016222614, 217.2987145400184, 219.24213806800617, 217.3230052177678, 212.1227544599751, 194.70775441239311]","[40.7, 50.0, 50.7, 52.2, 50.8, 46.9, 34.2]","[3, 4, 7, 8, 9, 10, 1]",gfn                                  2,gbsa,DMSO,36405315_0_result.pkl
benzo[b]thiophene,C1(SC=C2)=C2C=CC=C1,32.9,32.0,5a,-14702.923368202633,"['[C-]1=CC2=C(C=CC=C2)S1', '[C-]1=CC2=C(C=C1)C=CS2', '[C-]1=CC2=C(C=C1)SC=C2', '[C-]1=CC=CC2=C1SC=C2', '[C-]1=CC=CC2=C1C=CS2', '[C-]1=CSC2=C1C=CC=C2']","['benzo[b]thiophene#-1=3', 'benzo[b]thiophene#-1=8', 'benzo[b]thiophene#-1=7', 'benzo[b]thiophene#-1=9', 'benzo[b]thiophene#-1=6', 'benzo[b]thiophene#-1=4']","[-14517.291544134165, -14499.449334194742, -14496.792271192147, -14500.480980982144, -14500.898212090948, 60000.0]","[185.63182406846863, 203.47403400789153, 206.13109701048597, 202.44238722048976, 202.02515611168565, 74702.92336820264]","[27.5, 40.6, 42.6, 39.8, 39.5, 54654.7]","[3, 8, 7, 9, 6, 4]",gfn                                         2,gbsa,DMSO,36405315_0_result.pkl
benzofuran,C1(OC=C2)=C2C=CC=C1,32.7,33.2,5b,-15219.572921260105,"['[C-]1=CC2=C(C=CC=C2)O1', '[C-]1=CC2=C(C=C1)C=CO2', '[C-]1=CC2=C(C=C1)OC=C2', '[C-]1=CC=CC2=C1OC=C2', '[C-]1=CC=CC2=C1C=CO2', '[C-]1=COC2=C1C=CC=C2']","['benzofuran#-1=3', 'benzofuran#-1=8', 'benzofuran#-1=7', 'benzofuran#-1=9', 'benzofuran#-1=6', 'benzofuran#-1=4']","[-15029.153973522756, -15011.980996007143, -15010.003210600027, -15015.447866252101, -15012.604157660533, -15018.945740298142]","[190.4189477373493, 207.59192525296203, 209.56971066007827, 204.12505500800398, 206.9687635995724, 200.62718096196295]","[31.0, 43.6, 45.1, 41.1, 43.2, 38.5]","[3, 8, 7, 9, 6, 4]",gfn                                                2,gbsa,DMSO,36405315_0_result.pkl
benzo[d]oxazole,C1(OC=N2)=C2C=CC=C1,24.4,24.8,5b,-15396.76780792081,"['[C-]1=CC2=C(C=C1)N=CO2', '[C-]1=CC2=C(C=C1)OC=N2', '[C-]1=CC=CC2=C1OC=N2', '[C-]1=CC=CC2=C1N=CO2', '[C-]1=NC2=C(C=CC=C2)O1']","['benzo[d]oxazole#-1=8', 'benzo[d]oxazole#-1=7', 'benzo[d]oxazole#-1=9', 'benzo[d]oxazole#-1=6', 'benzo[d]oxazole#-1=3']","[-15195.651567638011, -15193.401111435915, -15199.82275496011, -15195.570796961023, -15216.942655034287]","[201.11624028279948, 203.36669648489624, 196.9450529607002, 201.1970109597878, 179.82515288652394]","[38.9, 40.5, 35.8, 38.9, 23.3]","[8, 7, 9, 6, 3]",gfn                                                      2,gbsa,DMSO,36405315_0_result.pkl