      -----------------------------------------------------------      
     |                   =====================                   |     
     |                           x T B                           |     
     |                   =====================                   |     
     |                         S. Grimme                         |     
     |          Mulliken Center for Theoretical Chemistry        |     
     |                    University of Bonn                     |     
      -----------------------------------------------------------      

   * xtb version 6.4.1 (afa7bdf) compiled by 'ehlert@majestix' on 2021-06-10

   xtb is free software: you can redistribute it and/or modify it under
   the terms of the GNU Lesser General Public License as published by
   the Free Software Foundation, either version 3 of the License, or
   (at your option) any later version.
   
   xtb is distributed in the hope that it will be useful,
   but WITHOUT ANY WARRANTY; without even the implied warranty of
   MERCHANTABILITY or FITNESS FOR A PARTICULAR PURPOSE.  See the
   GNU Lesser General Public License for more details.
   
   Cite this work as:
   * C. Bannwarth, E. Caldeweyher, S. Ehlert, A. Hansen, P. Pracht,
     J. Seibert, S. Spicher, S. Grimme, WIREs Comput. Mol. Sci., 2020, 11,
     e01493. DOI: 10.1002/wcms.1493
   
   for GFN2-xTB:
   * C. Bannwarth, S. Ehlert and S. Grimme., J. Chem. Theory Comput., 2019,
     15, 1652-1671. DOI: 10.1021/acs.jctc.8b01176
   for GFN1-xTB:
   * S. Grimme, C. Bannwarth, P. Shushkov, J. Chem. Theory Comput., 2017,
     13, 1989-2009. DOI: 10.1021/acs.jctc.7b00118
   for GFN0-xTB:
   * P. Pracht, E. Caldeweyher, S. Ehlert, S. Grimme, ChemRxiv, 2019, preprint.
     DOI: 10.26434/chemrxiv.8326202.v1
   for GFN-FF:
   * S. Spicher and S. Grimme, Angew. Chem. Int. Ed., 2020, 59, 15665-15673.
     DOI: 10.1002/anie.202004239
   
   for DFT-D4:
   * E. Caldeweyher, C. Bannwarth and S. Grimme, J. Chem. Phys., 2017,
     147, 034112. DOI: 10.1063/1.4993215
   * E. Caldeweyher, S. Ehlert, A. Hansen, H. Neugebauer, S. Spicher,
     C. Bannwarth and S. Grimme, J. Chem. Phys., 2019, 150, 154122.
     DOI: 10.1063/1.5090222
   * E. Caldeweyher, J.-M. Mewes, S. Ehlert and S. Grimme, Phys. Chem. Chem. Phys.
     2020, 22, 8499-8512. DOI: 10.1039/D0CP00502A
   
   for sTDA-xTB:
   * S. Grimme and C. Bannwarth, J. Chem. Phys., 2016, 145, 054103.
     DOI: 10.1063/1.4959605
   
   in the mass-spec context:
   * V. Asgeirsson, C. Bauer and S. Grimme, Chem. Sci., 2017, 8, 4879.
     DOI: 10.1039/c7sc00601b
   * J. Koopman and S. Grimme, ACS Omega 2019, 4, 12, 15120-15133.
     DOI: 10.1021/acsomega.9b02011
   
   for metadynamics refer to:
   * S. Grimme, J. Chem. Theory Comput., 2019, 155, 2847-2862
     DOI: 10.1021/acs.jctc.9b00143
   
   for SPH calculations refer to:
   * S. Spicher and S. Grimme, J. Chem. Theory Comput., 2021, 17, 1701-1714
     DOI: 10.1021/acs.jctc.0c01306
   
   with help from (in alphabetical order)
   P. Atkinson, C. Bannwarth, F. Bohle, G. Brandenburg, E. Caldeweyher
   M. Checinski, S. Dohm, S. Ehlert, S. Ehrlich, I. Gerasimov, J. Koopman
   C. Lavigne, S. Lehtola, F. März, M. Müller, F. Musil, H. Neugebauer
   J. Pisarek, C. Plett, P. Pracht, J. Seibert, P. Shushkov, S. Spicher
   M. Stahn, M. Steiner, T. Strunk, J. Stückrath, T. Rose, and J. Unsleber
   
 * started run on 2022/11/02 at 18:13:33.962     

           -------------------------------------------------
          |                Calculation Setup                |
           -------------------------------------------------

          program call               : /lustre/hpc/kemi/borup/pKalculator/dep/xtb-6.4.1/bin/xtb --gfn 2 /lustre/hpc/kemi/borup/pKalculator/calc/test/conf05/test_conf05_gfn2.xyz --opt --lmo --chrg 0 --uhf 0
          hostname                   : fend01.cluster
          coordinate file            : /lustre/hpc/kemi/borup/pKalculator/calc/test/conf05/test_conf05_gfn2.xyz
          omp threads                :                     1
          number of atoms            :                    19
          number of electrons        :                    56
          charge                     :                     0
          spin                       :                   0.0
          first test random number   :      0.64157222748438

   ID    Z sym.   atoms
    1    6 C      1-5, 7, 8, 11
    2   16 S      6
    3    7 N      9, 10
    4    1 H      12-19

           -------------------------------------------------
          |                 G F N 2 - x T B                 |
           -------------------------------------------------

        Reference                      10.1021/acs.jctc.8b01176
      * Hamiltonian:
        H0-scaling (s, p, d)           1.850000    2.230000    2.230000
        zeta-weighting                 0.500000
      * Dispersion:
        s8                             2.700000
        a1                             0.520000
        a2                             5.000000
        s9                             5.000000
      * Repulsion:
        kExp                           1.500000    1.000000
        rExp                           1.000000
      * Coulomb:
        alpha                          2.000000
        third order                    shell-resolved
        anisotropic                    true
        a3                             3.000000
        a5                             4.000000
        cn-shift                       1.200000
        cn-exp                         4.000000
        max-rad                        5.000000


          ...................................................
          :                      SETUP                      :
          :.................................................:
          :  # basis functions                  58          :
          :  # atomic orbitals                  57          :
          :  # shells                           31          :
          :  # electrons                        56          :
          :  max. iterations                   250          :
          :  Hamiltonian                  GFN2-xTB          :
          :  restarted?                      false          :
          :  GBSA solvation                  false          :
          :  PC potential                    false          :
          :  electronic temp.          300.0000000     K    :
          :  accuracy                    1.0000000          :
          :  -> integral cutoff          0.2500000E+02      :
          :  -> integral neglect         0.1000000E-07      :
          :  -> SCF convergence          0.1000000E-05 Eh   :
          :  -> wf. convergence          0.1000000E-03 e    :
          :  Broyden damping             0.4000000          :
          ...................................................

 iter      E             dE          RMSdq      gap      omega  full diag
   1    -30.6378714 -0.306379E+02  0.385E+00    3.41       0.0  T
   2    -30.6915028 -0.536314E-01  0.281E+00    3.38       1.0  T
   3    -30.7093687 -0.178659E-01  0.143E+00    3.48       1.0  T
   4    -30.7127355 -0.336681E-02  0.645E-01    3.46       1.0  T
   5    -30.7167880 -0.405246E-02  0.216E-01    3.45       1.0  T
   6    -30.7171217 -0.333702E-03  0.865E-02    3.46       1.0  T
   7    -30.7171534 -0.317004E-04  0.346E-02    3.46       1.0  T
   8    -30.7171658 -0.124790E-04  0.158E-02    3.46       1.5  T
   9    -30.7171667 -0.847186E-06  0.665E-03    3.46       3.4  T
  10    -30.7171669 -0.232701E-06  0.262E-03    3.46       8.8  T
  11    -30.7171669 -0.194649E-07  0.993E-04    3.46      23.1  T
  12    -30.7171669 -0.166847E-08  0.535E-04    3.46      42.9  T

   *** convergence criteria satisfied after 12 iterations ***

         #    Occupation            Energy/Eh            Energy/eV
      -------------------------------------------------------------
         1        2.0000           -0.7189802             -19.5644
       ...           ...                  ...                  ...
        22        2.0000           -0.4370049             -11.8915
        23        2.0000           -0.4338931             -11.8068
        24        2.0000           -0.4153837             -11.3032
        25        2.0000           -0.4051612             -11.0250
        26        2.0000           -0.3904838             -10.6256
        27        2.0000           -0.3798416             -10.3360
        28        2.0000           -0.3673195              -9.9953 (HOMO)
        29                         -0.2401432              -6.5346 (LUMO)
        30                         -0.2117134              -5.7610
        31                         -0.1928843              -5.2486
        32                         -0.1808123              -4.9202
        33                         -0.1159328              -3.1547
       ...                                ...                  ...
        57                          0.7252362              19.7347
      -------------------------------------------------------------
                  HL-Gap            0.1271763 Eh            3.4606 eV
             Fermi-level           -0.3037314 Eh           -8.2650 eV
 
 localization/xTB-IFF output generation
 averaging CT terms over            1  occ. levels
 averaging CT terms over            1  virt. levels
 dipole moment from electron density (au)
     X       Y       Z   
   0.8015   0.5616  -0.0888  total (Debye):    2.498
cpu  time for init local    0.01 s
wall time for init local    0.01 s
 doing rotations ...
 initialization of trafo matrix to unity

 converged in     43 iterations, threshold :   0.99336137D-06
 doing transformations ...
 lmo centers(Z=2) and atoms on file <lmocent.coord>
 LMO Fii/eV  ncent    charge center   contributions...
    1 sigma -17.11   1.96   4.11470   3.06717  -0.21133   10N :  0.56    9N :  0.45
    2 sigma -16.38   1.92   5.98442   2.30819   0.09028   10N :  0.58   11C :  0.43
    3 sigma -15.86   1.95   5.75801   4.26813  -0.43055   10N :  0.58   18H :  0.43
    4 sigma -14.84   1.94  -1.95803  -3.71863   1.19702    6S :  0.58    7C :  0.42
    5 sigma -14.84   1.94  -4.06581  -2.50927   0.77431    6S :  0.59    5C :  0.42
    6 sigma -14.76   1.97  -5.71835  -0.51667   0.17970    5C :  0.51    8C :  0.50
    7 sigma -14.48   2.00   3.65347  -0.25381   0.62296    1C :  0.51    2C :  0.49
    8 sigma -14.48   2.02   1.24968  -0.18840   0.47121    2C :  0.50    3C :  0.49
    9 sigma -14.44   2.01   7.97917   1.00928   0.53842   11C :  0.51   19H :  0.49
   10 sigma -14.39   2.00  -1.11019  -0.08645   0.31930    3C :  0.50    4C :  0.50
   11 sigma -14.12   2.00   0.57410  -4.16334   1.44675    7C :  0.51   14H :  0.49
   12 sigma -13.89   2.01  -7.36903   0.69337   1.03867    8C :  0.52   17H :  0.48
   13 sigma -13.87   2.00  -7.10472   0.67077  -1.11429    8C :  0.52   16H :  0.48
   14 sigma -13.84   1.97  -7.85629  -1.09733  -0.09278    8C :  0.52   15H :  0.48
   15 LP    -13.83   1.18  -3.73758  -5.19226  -1.02121    6S :  0.92
   16 LP    -13.82   1.18  -3.98939  -4.00139   3.65038    6S :  0.92
   17 sigma -13.80   2.01   5.08376  -2.01790   1.16034    1C :  0.50   12H :  0.49
   18 pi    -13.79   2.15   2.74864   1.54593  -0.37255    9N :  0.52    2C :  0.44
   19 pi    -13.76   2.16   2.69867   1.77802   0.52160    9N :  0.52    2C :  0.44
   20 sigma -13.51   2.02  -2.35372   1.80114  -0.22636    4C :  0.51   13H :  0.48
   21 pi    -13.46   2.19   5.58729   0.30017   1.10872    1C :  0.49   11C :  0.47
   22 pi    -13.46   2.19   5.64172   0.04808   0.13563    1C :  0.49   11C :  0.47
   23 pi    -13.29   2.17  -0.23870  -1.82629   1.33723    7C :  0.48    3C :  0.48
   24 pi    -13.29   2.18  -0.18612  -2.07733   0.34532    7C :  0.48    3C :  0.48
   25 pi    -13.24   2.14  -3.23800  -0.37512  -0.26004    4C :  0.49    5C :  0.48
   26 pi    -13.24   1.60   5.10222   2.84358  -0.09808   10N :  0.78   11C :  0.09    9N :  0.08
   27 pi    -13.24   2.13  -3.29234  -0.11978   0.74463    4C :  0.49    5C :  0.48
   28 LP    -11.69   1.02   1.64825   4.20682  -0.64496    9N :  0.99
 starting deloc pi regularization ...
 thr    2.20000000000000      # pi deloc LMO           5
 files:
 coordprot.0/xtbscreen.xyz/xtblmoinfo/lmocent.coord
 with protonation site input, xtbdock and
 LMO center info written
 

 SCC (total)                   0 d,  0 h,  0 min,  0.065 sec
 SCC setup                      ...        0 min,  0.000 sec (  0.575%)
 Dispersion                     ...        0 min,  0.000 sec (  0.399%)
 classical contributions        ...        0 min,  0.000 sec (  0.111%)
 integral evaluation            ...        0 min,  0.005 sec (  7.558%)
 iterations                     ...        0 min,  0.016 sec ( 24.545%)
 molecular gradient             ...        0 min,  0.011 sec ( 16.152%)
 printout                       ...        0 min,  0.033 sec ( 50.570%)

         :::::::::::::::::::::::::::::::::::::::::::::::::::::
         ::                     SUMMARY                     ::
         :::::::::::::::::::::::::::::::::::::::::::::::::::::
         :: total energy             -30.271980447444 Eh    ::
         :: gradient norm              0.053822172237 Eh/a0 ::
         :: HOMO-LUMO gap              3.460643687632 eV    ::
         ::.................................................::
         :: SCC energy               -30.717166946818 Eh    ::
         :: -> isotropic ES            0.010355606647 Eh    ::
         :: -> anisotropic ES          0.003809267838 Eh    ::
         :: -> anisotropic XC          0.020634078656 Eh    ::
         :: -> dispersion             -0.017817910261 Eh    ::
         :: repulsion energy           0.445229310611 Eh    ::
         :: add. restraining           0.000000000000 Eh    ::
         :: total charge              -0.000000000000 e     ::
         :::::::::::::::::::::::::::::::::::::::::::::::::::::

      ----------------------------------------------------------- 
     |                   =====================                   |
     |                        A N C O P T                        |
     |                   =====================                   |
     |               Approximate Normal Coordinate               |
     |                Rational Function Optimizer                |
      ----------------------------------------------------------- 

          ...................................................
          :                      SETUP                      :
          :.................................................:
          :   optimization level            normal          :
          :   max. optcycles                   200          :
          :   ANC micro-cycles                  20          :
          :   degrees of freedom                51          :
          :.................................................:
          :   RF solver                   davidson          :
          :   write xtbopt.log                true          :
          :   linear?                        false          :
          :   energy convergence         0.5000000E-05 Eh   :
          :   grad. convergence          0.1000000E-02 Eh/α :
          :   maximium RF displ.         1.0000000          :
          :   Hlow (freq-cutoff)         0.1000000E-01      :
          :   Hmax (freq-cutoff)         5.0000000          :
          :   S6 in model hess.         20.0000000          :
          ...................................................

generating ANC from model Hessian ...
Using Lindh-Hessian (1995)
 Shifting diagonal of input Hessian by   8.182561224324774E-003
 Lowest  eigenvalues of input Hessian
    0.000000    0.000000    0.000000    0.000000    0.000000    0.000000
    0.010000    0.011471    0.012830    0.016194    0.018647    0.023832
    0.029741    0.034003    0.041659    0.044931    0.052984    0.062111
 Highest eigenvalues
    1.786696    1.798778    1.910806    1.983382    2.026227    2.112566
 

........................................................................
.............................. CYCLE    1 ..............................
........................................................................
   1    -30.7171669 -0.307172E+02  0.158E-04    3.46       0.0  T
   2    -30.7171669 -0.442384E-10  0.931E-05    3.46     246.4  T
   3    -30.7171669  0.271072E-11  0.588E-05    3.46     390.1  T
     SCC iter.                  ...        0 min,  0.005 sec
     gradient                   ...        0 min,  0.010 sec
 * total energy  :   -30.2719804 Eh     change       -0.1525500E-08 Eh
   gradient norm :     0.0538254 Eh/α   predicted     0.0000000E+00 (-100.00%)
   displ. norm   :     0.1761742 α      lambda       -0.4875047E-02
   maximum displ.:     0.0890238 α      in ANC's #7, #9, #18, ...

........................................................................
.............................. CYCLE    2 ..............................
........................................................................
   1    -30.7279738 -0.307280E+02  0.215E-01    3.43       0.0  T
   2    -30.7280262 -0.524294E-04  0.124E-01    3.43       1.0  T
   3    -30.7280107  0.155289E-04  0.646E-02    3.43       1.0  T
   4    -30.7280472 -0.365258E-04  0.200E-02    3.43       1.1  T
   5    -30.7280494 -0.224369E-05  0.909E-03    3.43       2.5  T
   6    -30.7280499 -0.510692E-06  0.390E-03    3.43       5.9  T
   7    -30.7280501 -0.104967E-06  0.148E-03    3.43      15.5  T
   8    -30.7280501 -0.112258E-07  0.826E-04    3.43      27.8  T
   9    -30.7280501 -0.275002E-08  0.178E-04    3.43     129.2  T
     SCC iter.                  ...        0 min,  0.011 sec
     gradient                   ...        0 min,  0.010 sec
 * total energy  :   -30.2753511 Eh     change       -0.3370621E-02 Eh
   gradient norm :     0.0211056 Eh/α   predicted    -0.2513314E-02 ( -25.43%)
   displ. norm   :     0.1617050 α      lambda       -0.1498682E-02
   maximum displ.:     0.1141063 α      in ANC's #7, #9, #18, ...

........................................................................
.............................. CYCLE    3 ..............................
........................................................................
   1    -30.7332439 -0.307332E+02  0.151E-01    3.41       0.0  T
   2    -30.7332663 -0.223671E-04  0.871E-02    3.41       1.0  T
   3    -30.7332587  0.757865E-05  0.479E-02    3.41       1.0  T
   4    -30.7332763 -0.175192E-04  0.120E-02    3.41       1.9  T
   5    -30.7332772 -0.921883E-06  0.641E-03    3.41       3.6  T
   6    -30.7332776 -0.398516E-06  0.178E-03    3.41      12.9  T
   7    -30.7332776 -0.132532E-07  0.586E-04    3.41      39.2  T
   8    -30.7332776 -0.264675E-08  0.307E-04    3.41      74.7  T
     SCC iter.                  ...        0 min,  0.010 sec
     gradient                   ...        0 min,  0.010 sec
 * total energy  :   -30.2761877 Eh     change       -0.8366285E-03 Eh
   gradient norm :     0.0073252 Eh/α   predicted    -0.7690166E-03 (  -8.08%)
   displ. norm   :     0.0607646 α      lambda       -0.1331265E-03
   maximum displ.:     0.0510102 α      in ANC's #7, #3, #9, ...

........................................................................
.............................. CYCLE    4 ..............................
........................................................................
   1    -30.7330015 -0.307330E+02  0.410E-02    3.41       0.0  T
   2    -30.7330022 -0.744951E-06  0.239E-02    3.41       1.0  T
   3    -30.7330010  0.126197E-05  0.111E-02    3.41       2.1  T
   4    -30.7330026 -0.158685E-05  0.279E-03    3.41       8.2  T
   5    -30.7330026 -0.690690E-07  0.126E-03    3.41      18.3  T
   6    -30.7330026 -0.579652E-08  0.524E-04    3.41      43.8  T
   7    -30.7330026 -0.194993E-08  0.278E-04    3.41      82.7  T
     SCC iter.                  ...        0 min,  0.009 sec
     gradient                   ...        0 min,  0.010 sec
 * total energy  :   -30.2762826 Eh     change       -0.9492592E-04 Eh
   gradient norm :     0.0045051 Eh/α   predicted    -0.6681264E-04 ( -29.62%)
   displ. norm   :     0.0557269 α      lambda       -0.6439875E-04
   maximum displ.:     0.0412098 α      in ANC's #7, #3, #4, ...

........................................................................
.............................. CYCLE    5 ..............................
........................................................................
   1    -30.7325253 -0.307325E+02  0.321E-02    3.42       0.0  T
   2    -30.7325262 -0.834545E-06  0.182E-02    3.42       1.3  T
   3    -30.7325257  0.416121E-06  0.736E-03    3.42       3.1  T
   4    -30.7325263 -0.589117E-06  0.245E-03    3.42       9.4  T
   5    -30.7325264 -0.531645E-07  0.103E-03    3.42      22.3  T
   6    -30.7325264 -0.537222E-08  0.497E-04    3.42      46.2  T
   7    -30.7325264 -0.117886E-08  0.244E-04    3.42      93.9  T
     SCC iter.                  ...        0 min,  0.009 sec
     gradient                   ...        0 min,  0.010 sec
 * total energy  :   -30.2763197 Eh     change       -0.3702726E-04 Eh
   gradient norm :     0.0015983 Eh/α   predicted    -0.3230811E-04 ( -12.75%)
   displ. norm   :     0.0340718 α      lambda       -0.8065541E-05
   maximum displ.:     0.0221104 α      in ANC's #3, #4, #5, ...

........................................................................
.............................. CYCLE    6 ..............................
........................................................................
   1    -30.7325607 -0.307326E+02  0.140E-02    3.42       0.0  T
   2    -30.7325609 -0.167062E-06  0.755E-03    3.42       3.0  T
   3    -30.7325608  0.701063E-07  0.381E-03    3.42       6.0  T
   4    -30.7325609 -0.105641E-06  0.128E-03    3.42      18.0  T
   5    -30.7325609 -0.125119E-07  0.504E-04    3.42      45.5  T
   6    -30.7325609 -0.218158E-08  0.220E-04    3.42     104.3  T
     SCC iter.                  ...        0 min,  0.008 sec
     gradient                   ...        0 min,  0.010 sec
 * total energy  :   -30.2763279 Eh     change       -0.8231778E-05 Eh
   gradient norm :     0.0010261 Eh/α   predicted    -0.4036277E-05 ( -50.97%)
   displ. norm   :     0.0494895 α      lambda       -0.7757330E-05
   maximum displ.:     0.0289018 α      in ANC's #3, #4, #5, ...

........................................................................
.............................. CYCLE    7 ..............................
........................................................................
   1    -30.7327122 -0.307327E+02  0.160E-02    3.42       0.0  T
   2    -30.7327123 -0.156468E-06  0.940E-03    3.42       2.4  T
   3    -30.7327122  0.186336E-06  0.454E-03    3.42       5.1  T
   4    -30.7327124 -0.228017E-06  0.153E-03    3.42      15.0  T
   5    -30.7327124 -0.227153E-07  0.494E-04    3.42      46.4  T
   6    -30.7327124 -0.164615E-08  0.230E-04    3.42      99.6  T
     SCC iter.                  ...        0 min,  0.008 sec
     gradient                   ...        0 min,  0.010 sec
 * total energy  :   -30.2763366 Eh     change       -0.8722060E-05 Eh
   gradient norm :     0.0011692 Eh/α   predicted    -0.3885601E-05 ( -55.45%)
   displ. norm   :     0.0977486 α      lambda       -0.1081969E-04
   maximum displ.:     0.0625137 α      in ANC's #4, #3, #5, ...

........................................................................
.............................. CYCLE    8 ..............................
........................................................................
   1    -30.7326587 -0.307327E+02  0.283E-02    3.42       0.0  T
   2    -30.7326589 -0.266096E-06  0.167E-02    3.42       1.4  T
   3    -30.7326586  0.351363E-06  0.554E-03    3.42       4.1  T
   4    -30.7326590 -0.387950E-06  0.198E-03    3.42      11.6  T
   5    -30.7326590 -0.412279E-07  0.659E-04    3.42      34.8  T
   6    -30.7326590 -0.238276E-08  0.300E-04    3.42      76.5  T
     SCC iter.                  ...        0 min,  0.008 sec
     gradient                   ...        0 min,  0.010 sec
 * total energy  :   -30.2763489 Eh     change       -0.1226470E-04 Eh
   gradient norm :     0.0019989 Eh/α   predicted    -0.5433805E-05 ( -55.70%)
   displ. norm   :     0.1692595 α      lambda       -0.1694937E-04
   maximum displ.:     0.1117886 α      in ANC's #4, #5, #6, ...

........................................................................
.............................. CYCLE    9 ..............................
........................................................................
   1    -30.7322985 -0.307323E+02  0.477E-02    3.42       0.0  T
   2    -30.7322990 -0.492637E-06  0.280E-02    3.42       1.0  T
   3    -30.7322986  0.399359E-06  0.623E-03    3.42       3.7  T
   4    -30.7322991 -0.444631E-06  0.269E-03    3.42       8.5  T
   5    -30.7322991 -0.659451E-07  0.104E-03    3.42      22.0  T
   6    -30.7322991 -0.580931E-08  0.432E-04    3.42      53.1  T
   7    -30.7322991 -0.145520E-08  0.153E-04    3.42     149.6  T
     SCC iter.                  ...        0 min,  0.009 sec
     gradient                   ...        0 min,  0.010 sec
 * total energy  :   -30.2763646 Eh     change       -0.1576047E-04 Eh
   gradient norm :     0.0033764 Eh/α   predicted    -0.8585034E-05 ( -45.53%)
   displ. norm   :     0.0689625 α      lambda       -0.1776184E-04
   maximum displ.:     0.0482347 α      in ANC's #4, #5, #6, ...

........................................................................
.............................. CYCLE   10 ..............................
........................................................................
   1    -30.7324460 -0.307324E+02  0.204E-02    3.42       0.0  T
   2    -30.7324461 -0.440965E-07  0.120E-02    3.42       1.9  T
   3    -30.7324461  0.278884E-07  0.186E-03    3.42      12.4  T
   4    -30.7324461 -0.371274E-07  0.735E-04    3.42      31.2  T
   5    -30.7324461 -0.277454E-08  0.255E-04    3.42      89.9  T
     SCC iter.                  ...        0 min,  0.007 sec
     gradient                   ...        0 min,  0.010 sec
 * total energy  :   -30.2763804 Eh     change       -0.1578934E-04 Eh
   gradient norm :     0.0030179 Eh/α   predicted    -0.8925986E-05 ( -43.47%)
   displ. norm   :     0.2394442 α      lambda       -0.7323641E-04
   maximum displ.:     0.1666852 α      in ANC's #4, #5, #6, ...

........................................................................
.............................. CYCLE   11 ..............................
........................................................................
   1    -30.7322189 -0.307322E+02  0.705E-02    3.41       0.0  T
   2    -30.7322194 -0.465360E-06  0.412E-02    3.41       1.0  T
   3    -30.7322189  0.558418E-06  0.774E-03    3.41       3.0  T
   4    -30.7322195 -0.628660E-06  0.341E-03    3.41       6.7  T
   5    -30.7322196 -0.792820E-07  0.127E-03    3.41      18.1  T
   6    -30.7322196 -0.134137E-07  0.448E-04    3.41      51.2  T
   7    -30.7322196 -0.224690E-08  0.180E-04    3.41     127.2  T
     SCC iter.                  ...        0 min,  0.009 sec
     gradient                   ...        0 min,  0.010 sec
 * total energy  :   -30.2764314 Eh     change       -0.5099972E-04 Eh
   gradient norm :     0.0033772 Eh/α   predicted    -0.3871833E-04 ( -24.08%)
   displ. norm   :     0.1349332 α      lambda       -0.7643113E-04
   maximum displ.:     0.0771754 α      in ANC's #4, #3, #5, ...

........................................................................
.............................. CYCLE   12 ..............................
........................................................................
   1    -30.7334796 -0.307335E+02  0.460E-02    3.41       0.0  T
   2    -30.7334810 -0.135462E-05  0.261E-02    3.41       1.0  T
   3    -30.7334800  0.972520E-06  0.106E-02    3.41       2.2  T
   4    -30.7334811 -0.106823E-05  0.426E-03    3.41       5.4  T
   5    -30.7334813 -0.185297E-06  0.126E-03    3.41      18.3  T
   6    -30.7334813 -0.505960E-08  0.592E-04    3.41      38.7  T
   7    -30.7334813 -0.355170E-08  0.176E-04    3.41     130.5  T
     SCC iter.                  ...        0 min,  0.009 sec
     gradient                   ...        0 min,  0.010 sec
 * total energy  :   -30.2764645 Eh     change       -0.3312939E-04 Eh
   gradient norm :     0.0039752 Eh/α   predicted    -0.3891212E-04 (  17.45%)
   displ. norm   :     0.3837447 α      lambda       -0.9552368E-04
   maximum displ.:     0.2643166 α      in ANC's #4, #5, #6, ...

........................................................................
.............................. CYCLE   13 ..............................
........................................................................
   1    -30.7288827 -0.307289E+02  0.118E-01    3.40       0.0  T
   2    -30.7288891 -0.638583E-05  0.682E-02    3.40       1.0  T
   3    -30.7288887  0.407349E-06  0.135E-02    3.40       1.7  T
   4    -30.7288893 -0.591484E-06  0.671E-03    3.40       3.4  T
   5    -30.7288897 -0.469698E-06  0.274E-03    3.40       8.4  T
   6    -30.7288898 -0.298671E-07  0.877E-04    3.40      26.2  T
   7    -30.7288898 -0.748439E-08  0.465E-04    3.40      49.3  T
     SCC iter.                  ...        0 min,  0.009 sec
     gradient                   ...        0 min,  0.010 sec
 * total energy  :   -30.2763582 Eh     change        0.1063506E-03 Eh
   gradient norm :     0.0124369 Eh/α   predicted    -0.5479772E-04 (-151.53%)
   displ. norm   :     0.2696910 α      lambda       -0.4291079E-03
   maximum displ.:     0.1859599 α      in ANC's #4, #5, #6, ...

........................................................................
.............................. CYCLE   14 ..............................
........................................................................
   1    -30.7329411 -0.307329E+02  0.906E-02    3.41       0.0  T
   2    -30.7329456 -0.451380E-05  0.517E-02    3.41       1.0  T
   3    -30.7329451  0.482262E-06  0.123E-02    3.41       1.9  T
   4    -30.7329458 -0.637775E-06  0.581E-03    3.41       4.0  T
   5    -30.7329461 -0.351927E-06  0.212E-03    3.41      10.8  T
   6    -30.7329461 -0.123885E-07  0.847E-04    3.41      27.1  T
   7    -30.7329461 -0.811966E-08  0.376E-04    3.41      61.1  T
     SCC iter.                  ...        0 min,  0.009 sec
     gradient                   ...        0 min,  0.010 sec
 * total energy  :   -30.2765070 Eh     change       -0.1488097E-03 Eh
   gradient norm :     0.0026648 Eh/α   predicted    -0.2301478E-03 (  54.66%)
   displ. norm   :     0.0535145 α      lambda       -0.2033977E-04
   maximum displ.:     0.0338341 α      in ANC's #4, #5, #6, ...

........................................................................
.............................. CYCLE   15 ..............................
........................................................................
   1    -30.7328551 -0.307329E+02  0.149E-02    3.41       0.0  T
   2    -30.7328552 -0.798394E-07  0.868E-03    3.41       2.6  T
   3    -30.7328551  0.413532E-07  0.224E-03    3.41      10.2  T
   4    -30.7328552 -0.490512E-07  0.820E-04    3.41      28.0  T
   5    -30.7328552 -0.725691E-08  0.284E-04    3.41      80.8  T
     SCC iter.                  ...        0 min,  0.007 sec
     gradient                   ...        0 min,  0.010 sec
 * total energy  :   -30.2765260 Eh     change       -0.1900814E-04 Eh
   gradient norm :     0.0020011 Eh/α   predicted    -0.1019978E-04 ( -46.34%)
   displ. norm   :     0.4187066 α      lambda       -0.1269484E-03
   maximum displ.:     0.2647739 α      in ANC's #4, #5, #6, ...

........................................................................
.............................. CYCLE   16 ..............................
........................................................................
   1    -30.7295743 -0.307296E+02  0.116E-01    3.40       0.0  T
   2    -30.7295810 -0.668528E-05  0.675E-02    3.40       1.0  T
   3    -30.7295804  0.598159E-06  0.141E-02    3.40       1.6  T
   4    -30.7295813 -0.900223E-06  0.566E-03    3.40       4.1  T
   5    -30.7295816 -0.332994E-06  0.239E-03    3.40       9.6  T
   6    -30.7295816 -0.831396E-08  0.109E-03    3.40      21.0  T
   7    -30.7295816 -0.153132E-07  0.411E-04    3.40      55.8  T
   8    -30.7295816 -0.508724E-09  0.190E-04    3.40     120.9  T
     SCC iter.                  ...        0 min,  0.010 sec
     gradient                   ...        0 min,  0.010 sec
 * total energy  :   -30.2764850 Eh     change        0.4105620E-04 Eh
   gradient norm :     0.0102987 Eh/α   predicted    -0.7463527E-04 (-281.79%)
   displ. norm   :     0.2547538 α      lambda       -0.2989030E-03
   maximum displ.:     0.1658849 α      in ANC's #4, #5, #6, ...

........................................................................
.............................. CYCLE   17 ..............................
........................................................................
   1    -30.7330005 -0.307330E+02  0.772E-02    3.41       0.0  T
   2    -30.7330046 -0.412441E-05  0.444E-02    3.41       1.0  T
   3    -30.7330046 -0.148347E-07  0.977E-03    3.41       2.3  T
   4    -30.7330048 -0.183662E-06  0.334E-03    3.41       6.9  T
   5    -30.7330049 -0.875172E-07  0.156E-03    3.41      14.7  T
   6    -30.7330049 -0.909017E-08  0.387E-04    3.41      59.3  T
   7    -30.7330049 -0.976044E-09  0.237E-04    3.41      96.7  T
     SCC iter.                  ...        0 min,  0.009 sec
     gradient                   ...        0 min,  0.010 sec
 * total energy  :   -30.2765716 Eh     change       -0.8664483E-04 Eh
   gradient norm :     0.0007610 Eh/α   predicted    -0.1590415E-03 (  83.56%)
   displ. norm   :     0.0984746 α      lambda       -0.1479859E-04
   maximum displ.:     0.0601945 α      in ANC's #4, #5, #6, ...

........................................................................
.............................. CYCLE   18 ..............................
........................................................................
   1    -30.7326879 -0.307327E+02  0.255E-02    3.41       0.0  T
   2    -30.7326881 -0.129142E-06  0.151E-02    3.41       1.5  T
   3    -30.7326880  0.662214E-07  0.285E-03    3.41       8.1  T
   4    -30.7326881 -0.664457E-07  0.134E-03    3.41      17.1  T
   5    -30.7326881 -0.214618E-07  0.483E-04    3.41      47.5  T
   6    -30.7326881 -0.951506E-09  0.150E-04    3.41     153.0  T
     SCC iter.                  ...        0 min,  0.008 sec
     gradient                   ...        0 min,  0.010 sec
 * total energy  :   -30.2765910 Eh     change       -0.1938458E-04 Eh
   gradient norm :     0.0015066 Eh/α   predicted    -0.7447704E-05 ( -61.58%)
   displ. norm   :     0.3229470 α      lambda       -0.4035249E-04
   maximum displ.:     0.1970489 α      in ANC's #4, #5, #6, ...

........................................................................
.............................. CYCLE   19 ..............................
........................................................................
   1    -30.7302455 -0.307302E+02  0.853E-02    3.40       0.0  T
   2    -30.7302481 -0.259987E-05  0.501E-02    3.40       1.0  T
   3    -30.7302476  0.438986E-06  0.967E-03    3.40       2.4  T
   4    -30.7302480 -0.423789E-06  0.502E-03    3.40       4.6  T
   5    -30.7302483 -0.295416E-06  0.176E-03    3.40      13.0  T
   6    -30.7302484 -0.880238E-08  0.608E-04    3.40      37.7  T
   7    -30.7302484 -0.341390E-08  0.221E-04    3.40     103.8  T
     SCC iter.                  ...        0 min,  0.009 sec
     gradient                   ...        0 min,  0.010 sec
 * total energy  :   -30.2765617 Eh     change        0.2931439E-04 Eh
   gradient norm :     0.0082832 Eh/α   predicted    -0.2134758E-04 (-172.82%)
   displ. norm   :     0.1375285 α      lambda       -0.1142740E-03
   maximum displ.:     0.0856806 α      in ANC's #4, #5, #6, ...

........................................................................
.............................. CYCLE   20 ..............................
........................................................................
   1    -30.7321092 -0.307321E+02  0.403E-02    3.40       0.0  T
   2    -30.7321102 -0.108746E-05  0.233E-02    3.40       1.0  T
   3    -30.7321103 -0.153426E-07  0.490E-03    3.40       4.7  T
   4    -30.7321103 -0.250791E-07  0.196E-03    3.40      11.7  T
   5    -30.7321103 -0.326238E-07  0.987E-04    3.40      23.2  T
   6    -30.7321103 -0.522346E-08  0.297E-04    3.40      77.3  T
     SCC iter.                  ...        0 min,  0.008 sec
     gradient                   ...        0 min,  0.010 sec
 * total energy  :   -30.2766179 Eh     change       -0.5623119E-04 Eh
   gradient norm :     0.0031360 Eh/α   predicted    -0.5680859E-04 (   1.03%)
   displ. norm   :     0.0125818 α      lambda       -0.1130798E-04
   maximum displ.:     0.0058011 α      in ANC's #2, #3, #4, ...
 * RMSD in coord.:     0.3305246 α      energy gain  -0.4637459E-02 Eh

generating ANC from model Hessian ...
Using Lindh-Hessian (1995)
 Shifting diagonal of input Hessian by   8.005908313704001E-003
 Lowest  eigenvalues of input Hessian
    0.000000    0.000000    0.000000    0.000000    0.000000    0.000000
    0.010000    0.011429    0.012913    0.015990    0.019005    0.024564
    0.030093    0.036029    0.041303    0.045200    0.055684    0.062916
 Highest eigenvalues
    1.807344    1.823402    1.959749    2.047381    2.090386    2.156618
 

........................................................................
.............................. CYCLE   21 ..............................
........................................................................
   1    -30.7324796 -0.307325E+02  0.520E-03    3.40       0.0  T
   2    -30.7324796 -0.400534E-07  0.290E-03    3.40       7.9  T
   3    -30.7324796 -0.264084E-09  0.973E-04    3.40      23.6  T
   4    -30.7324796 -0.120606E-08  0.357E-04    3.40      64.2  T
     SCC iter.                  ...        0 min,  0.006 sec
     gradient                   ...        0 min,  0.010 sec
 * total energy  :   -30.2766280 Eh     change       -0.1008798E-04 Eh
   gradient norm :     0.0021167 Eh/α   predicted     0.0000000E+00 (-100.00%)
   displ. norm   :     0.0200100 α      lambda       -0.1366135E-04
   maximum displ.:     0.0112873 α      in ANC's #3, #2, #4, ...

........................................................................
.............................. CYCLE   22 ..............................
........................................................................
   1    -30.7330488 -0.307330E+02  0.889E-03    3.40       0.0  T
   2    -30.7330489 -0.101766E-06  0.497E-03    3.40       4.6  T
   3    -30.7330489 -0.357900E-10  0.150E-03    3.40      15.3  T
   4    -30.7330489 -0.316423E-08  0.615E-04    3.40      37.3  T
   5    -30.7330489 -0.407648E-08  0.256E-04    3.40      89.4  T
     SCC iter.                  ...        0 min,  0.007 sec
     gradient                   ...        0 min,  0.010 sec
 * total energy  :   -30.2766380 Eh     change       -0.1001466E-04 Eh
   gradient norm :     0.0006795 Eh/α   predicted    -0.6895903E-05 ( -31.14%)
   displ. norm   :     0.0611656 α      lambda       -0.1171044E-04
   maximum displ.:     0.0369937 α      in ANC's #2, #3, #4, ...

........................................................................
.............................. CYCLE   23 ..............................
........................................................................
   1    -30.7336928 -0.307337E+02  0.186E-02    3.40       0.0  T
   2    -30.7336930 -0.194330E-06  0.107E-02    3.40       2.1  T
   3    -30.7336929  0.246732E-07  0.243E-03    3.40       9.5  T
   4    -30.7336930 -0.416086E-07  0.962E-04    3.40      23.8  T
   5    -30.7336930 -0.939866E-08  0.443E-04    3.40      51.8  T
     SCC iter.                  ...        0 min,  0.007 sec
     gradient                   ...        0 min,  0.010 sec
 * total energy  :   -30.2766494 Eh     change       -0.1143927E-04 Eh
   gradient norm :     0.0014313 Eh/α   predicted    -0.5865712E-05 ( -48.72%)
   displ. norm   :     0.0821034 α      lambda       -0.1134575E-04
   maximum displ.:     0.0495835 α      in ANC's #2, #4, #3, ...

........................................................................
.............................. CYCLE   24 ..............................
........................................................................
   1    -30.7336235 -0.307336E+02  0.231E-02    3.41       0.0  T
   2    -30.7336236 -0.104837E-06  0.135E-02    3.41       1.7  T
   3    -30.7336236  0.543062E-07  0.260E-03    3.41       8.8  T
   4    -30.7336236 -0.834693E-07  0.855E-04    3.41      26.8  T
   5    -30.7336236 -0.323003E-08  0.513E-04    3.41      44.8  T
     SCC iter.                  ...        0 min,  0.007 sec
     gradient                   ...        0 min,  0.011 sec
 * total energy  :   -30.2766646 Eh     change       -0.1512610E-04 Eh
   gradient norm :     0.0013836 Eh/α   predicted    -0.5692182E-05 ( -62.37%)
   displ. norm   :     0.2358270 α      lambda       -0.2970757E-04
   maximum displ.:     0.1397635 α      in ANC's #2, #4, #3, ...

........................................................................
.............................. CYCLE   25 ..............................
........................................................................
   1    -30.7322876 -0.307323E+02  0.664E-02    3.41       0.0  T
   2    -30.7322887 -0.111342E-05  0.389E-02    3.41       1.0  T
   3    -30.7322882  0.526408E-06  0.820E-03    3.40       2.8  T
   4    -30.7322889 -0.720474E-06  0.304E-03    3.41       7.6  T
   5    -30.7322890 -0.747298E-07  0.148E-03    3.40      15.5  T
   6    -30.7322890 -0.926279E-08  0.598E-04    3.40      38.4  T
   7    -30.7322890 -0.288930E-08  0.166E-04    3.40     138.5  T
     SCC iter.                  ...        0 min,  0.009 sec
     gradient                   ...        0 min,  0.010 sec
 * total energy  :   -30.2766808 Eh     change       -0.1620769E-04 Eh
   gradient norm :     0.0031355 Eh/α   predicted    -0.1522156E-04 (  -6.08%)
   displ. norm   :     0.0467593 α      lambda       -0.1500775E-04
   maximum displ.:     0.0253029 α      in ANC's #2, #3, #4, ...

........................................................................
.............................. CYCLE   26 ..............................
........................................................................
   1    -30.7329015 -0.307329E+02  0.141E-02    3.40       0.0  T
   2    -30.7329016 -0.112812E-06  0.809E-03    3.40       2.8  T
   3    -30.7329016  0.198277E-07  0.216E-03    3.41      10.6  T
   4    -30.7329016 -0.295423E-07  0.891E-04    3.40      25.7  T
   5    -30.7329016 -0.789477E-08  0.417E-04    3.41      55.0  T
     SCC iter.                  ...        0 min,  0.007 sec
     gradient                   ...        0 min,  0.010 sec
 * total energy  :   -30.2766905 Eh     change       -0.9689117E-05 Eh
   gradient norm :     0.0015704 Eh/α   predicted    -0.7530338E-05 ( -22.28%)
   displ. norm   :     0.0414787 α      lambda       -0.1116075E-04
   maximum displ.:     0.0226194 α      in ANC's #3, #2, #4, ...

........................................................................
.............................. CYCLE   27 ..............................
........................................................................
   1    -30.7333580 -0.307334E+02  0.146E-02    3.40       0.0  T
   2    -30.7333581 -0.106822E-06  0.820E-03    3.40       2.8  T
   3    -30.7333581  0.366693E-08  0.194E-03    3.40      11.8  T
   4    -30.7333581 -0.174111E-07  0.745E-04    3.40      30.8  T
   5    -30.7333581 -0.348515E-08  0.395E-04    3.40      58.1  T
     SCC iter.                  ...        0 min,  0.007 sec
     gradient                   ...        0 min,  0.010 sec
 * total energy  :   -30.2767033 Eh     change       -0.1285561E-04 Eh
   gradient norm :     0.0005375 Eh/α   predicted    -0.5584743E-05 ( -56.56%)
   displ. norm   :     0.1833295 α      lambda       -0.2332772E-04
   maximum displ.:     0.1089366 α      in ANC's #2, #4, #5, ...

........................................................................
.............................. CYCLE   28 ..............................
........................................................................
   1    -30.7329961 -0.307330E+02  0.539E-02    3.40       0.0  T
   2    -30.7329966 -0.540258E-06  0.315E-02    3.40       1.0  T
   3    -30.7329967 -0.356153E-07  0.359E-03    3.40       6.4  T
   4    -30.7329967 -0.530088E-07  0.187E-03    3.40      12.3  T
   5    -30.7329968 -0.242366E-07  0.975E-04    3.40      23.5  T
   6    -30.7329968 -0.686562E-08  0.297E-04    3.40      77.3  T
     SCC iter.                  ...        0 min,  0.008 sec
     gradient                   ...        0 min,  0.010 sec
 * total energy  :   -30.2767303 Eh     change       -0.2694732E-04 Eh
   gradient norm :     0.0017926 Eh/α   predicted    -0.1183565E-04 ( -56.08%)
   displ. norm   :     0.1918534 α      lambda       -0.1680297E-04
   maximum displ.:     0.1118118 α      in ANC's #2, #4, #5, ...

........................................................................
.............................. CYCLE   29 ..............................
........................................................................
   1    -30.7319390 -0.307319E+02  0.557E-02    3.40       0.0  T
   2    -30.7319397 -0.707668E-06  0.327E-02    3.40       1.0  T
   3    -30.7319394  0.332992E-06  0.641E-03    3.40       3.6  T
   4    -30.7319398 -0.422373E-06  0.283E-03    3.40       8.1  T
   5    -30.7319399 -0.814837E-07  0.108E-03    3.40      21.3  T
   6    -30.7319399 -0.301777E-08  0.366E-04    3.40      62.7  T
   7    -30.7319399 -0.127564E-08  0.106E-04    3.40     216.7  T
     SCC iter.                  ...        0 min,  0.009 sec
     gradient                   ...        0 min,  0.010 sec
 * total energy  :   -30.2767350 Eh     change       -0.4708454E-05 Eh
   gradient norm :     0.0042341 Eh/α   predicted    -0.8537726E-05 (  81.33%)
   displ. norm   :     0.0375631 α      lambda       -0.2140994E-04
   maximum displ.:     0.0220832 α      in ANC's #2, #4, #5, ...

........................................................................
.............................. CYCLE   30 ..............................
........................................................................
   1    -30.7327144 -0.307327E+02  0.140E-02    3.40       0.0  T
   2    -30.7327146 -0.223312E-06  0.783E-03    3.40       2.9  T
   3    -30.7327145  0.568476E-07  0.326E-03    3.40       7.0  T
   4    -30.7327146 -0.625464E-07  0.139E-03    3.40      16.5  T
   5    -30.7327146 -0.221185E-07  0.431E-04    3.40      53.2  T
   6    -30.7327146 -0.424382E-09  0.215E-04    3.40     106.5  T
     SCC iter.                  ...        0 min,  0.008 sec
     gradient                   ...        0 min,  0.010 sec
 * total energy  :   -30.2767482 Eh     change       -0.1323583E-04 Eh
   gradient norm :     0.0020287 Eh/α   predicted    -0.1073445E-04 ( -18.90%)
   displ. norm   :     0.0242707 α      lambda       -0.8833854E-05
   maximum displ.:     0.0141937 α      in ANC's #4, #3, #2, ...

........................................................................
.............................. CYCLE   31 ..............................
........................................................................
   1    -30.7330965 -0.307331E+02  0.928E-03    3.40       0.0  T
   2    -30.7330966 -0.702015E-07  0.514E-03    3.40       4.5  T
   3    -30.7330966  0.245151E-07  0.201E-03    3.40      11.4  T
   4    -30.7330966 -0.276942E-07  0.858E-04    3.40      26.7  T
   5    -30.7330966 -0.791220E-08  0.260E-04    3.40      88.1  T
     SCC iter.                  ...        0 min,  0.007 sec
     gradient                   ...        0 min,  0.010 sec
 * total energy  :   -30.2767546 Eh     change       -0.6387410E-05 Eh
   gradient norm :     0.0009942 Eh/α   predicted    -0.4416381E-05 ( -30.86%)
   displ. norm   :     0.0981575 α      lambda       -0.8434280E-05
   maximum displ.:     0.0592534 α      in ANC's #4, #2, #5, ...

........................................................................
.............................. CYCLE   32 ..............................
........................................................................
   1    -30.7333668 -0.307334E+02  0.290E-02    3.40       0.0  T
   2    -30.7333669 -0.158852E-06  0.170E-02    3.40       1.4  T
   3    -30.7333668  0.799943E-07  0.303E-03    3.40       7.6  T
   4    -30.7333669 -0.100918E-06  0.138E-03    3.40      16.7  T
   5    -30.7333670 -0.208544E-07  0.456E-04    3.40      50.3  T
   6    -30.7333670 -0.361421E-09  0.222E-04    3.40     103.3  T
     SCC iter.                  ...        0 min,  0.008 sec
     gradient                   ...        0 min,  0.010 sec
 * total energy  :   -30.2767631 Eh     change       -0.8496443E-05 Eh
   gradient norm :     0.0005143 Eh/α   predicted    -0.4217594E-05 ( -50.36%)
   displ. norm   :     0.1254318 α      lambda       -0.6581973E-05
   maximum displ.:     0.0774459 α      in ANC's #2, #4, #5, ...

........................................................................
.............................. CYCLE   33 ..............................
........................................................................
   1    -30.7328342 -0.307328E+02  0.358E-02    3.40       0.0  T
   2    -30.7328344 -0.183828E-06  0.211E-02    3.40       1.1  T
   3    -30.7328344  0.539929E-08  0.238E-03    3.40       9.6  T
   4    -30.7328344 -0.412128E-07  0.127E-03    3.40      18.0  T
   5    -30.7328344 -0.138274E-07  0.563E-04    3.40      40.7  T
   6    -30.7328344 -0.138562E-08  0.210E-04    3.40     109.0  T
     SCC iter.                  ...        0 min,  0.008 sec
     gradient                   ...        0 min,  0.010 sec
 * total energy  :   -30.2767671 Eh     change       -0.4046737E-05 Eh
   gradient norm :     0.0018418 Eh/α   predicted    -0.3300544E-05 ( -18.44%)
   displ. norm   :     0.0159243 α      lambda       -0.4782376E-05
   maximum displ.:     0.0130844 α      in ANC's #3, #1, #4, ...

........................................................................
.............................. CYCLE   34 ..............................
........................................................................
   1    -30.7332502 -0.307333E+02  0.690E-03    3.40       0.0  T
   2    -30.7332503 -0.652077E-07  0.395E-03    3.40       5.8  T
   3    -30.7332503  0.200753E-07  0.192E-03    3.40      11.9  T
   4    -30.7332503 -0.280300E-07  0.719E-04    3.40      31.9  T
   5    -30.7332503 -0.549347E-08  0.230E-04    3.40      99.9  T
     SCC iter.                  ...        0 min,  0.007 sec
     gradient                   ...        0 min,  0.010 sec
 * total energy  :   -30.2767721 Eh     change       -0.4981640E-05 Eh
   gradient norm :     0.0009334 Eh/α   predicted    -0.2408578E-05 ( -51.65%)
   displ. norm   :     0.0727151 α      lambda       -0.4861162E-05
   maximum displ.:     0.0444992 α      in ANC's #2, #4, #5, ...

   *** GEOMETRY OPTIMIZATION CONVERGED AFTER 34 ITERATIONS ***

------------------------------------------------------------------------
 total energy gain   :        -0.0047917 Eh       -3.0068 kcal/mol
 total RMSD          :         0.5179699 a0        0.2741 Å
 total power (kW/mol):        -0.3700165 (step)  -15.4926 (real)
------------------------------------------------------------------------

 ANCopt (total)                0 d,  0 h,  0 min,  0.812 sec
 optimizer setup                ...        0 min,  0.001 sec (  0.119%)
 model hessian                  ...        0 min,  0.008 sec (  0.960%)
 ANC generation                 ...        0 min,  0.002 sec (  0.191%)
 coordinate transformation      ...        0 min,  0.001 sec (  0.068%)
 single point calculation       ...        0 min,  0.788 sec ( 97.015%)
 optimization log               ...        0 min,  0.006 sec (  0.767%)
 hessian update                 ...        0 min,  0.001 sec (  0.073%)
 rational function              ...        0 min,  0.004 sec (  0.485%)

================
 final structure:
================
19
 xtb: 6.4.1 (afa7bdf)
C         2.58939305406855   -0.40509206926504    0.47095827800874
C         1.33526069705065    0.19127924988676    0.19979666478419
C         0.02052145191283   -0.39939991595278    0.31255857410650
C        -1.18209915440959    0.30609751017402    0.01896741404508
C        -2.30222266766143   -0.43454520518861    0.19425398592037
S        -1.90669762401876   -2.04161774964936    0.73285527344555
C        -0.22782184852435   -1.68075934109802    0.70933603486332
C        -3.72177103435736   -0.03755108116850   -0.00228876809948
N         1.50293527450990    1.44732708143201   -0.19745431192299
N         2.81306700605527    1.66245251068426   -0.18646416483078
C         3.51000218761659    0.57596265633413    0.20953622787363
H         2.77643691166914   -1.40334629862401    0.80686761886209
H        -1.17739925133898    1.32889385825155   -0.30955352191740
H         0.47221276992245   -2.44113938003720    0.99177439228331
H        -4.22699824590776   -0.72951748341324   -0.67616092475127
H        -3.77039217336891    0.96469390198141   -0.42203048612368
H        -4.25778507633398   -0.04632717192483    0.94741580491358
H         3.17401663668379    2.56349072705508   -0.45648095807088
H         4.57934108643192    0.57909920052245    0.27468986661004
 
 Bond Distances (Angstroems)
 ---------------------------
C1-C2=1.4149         C1-C11=1.3705        C1-H12=1.0697        C2-C1=1.4149         C2-C3=1.4457         C2-N9=1.3280         
C3-C2=1.4457         C3-C4=1.4249         C3-C7=1.3642         C4-C3=1.4249         C4-C5=1.3542         C4-H13=1.0743        
C5-C4=1.3542         C5-S6=1.7405         C5-C8=1.4871         S6-C5=1.7405         S6-C7=1.7174         C7-C3=1.3642         
C7-S6=1.7174         C7-H14=1.0714        C8-C5=1.4871         C8-H15=1.0900        C8-H16=1.0877        C8-H17=1.0906        
N9-C2=1.3280         N9-N10=1.3277        N10-N9=1.3277        N10-C11=1.3502       N10-H18=1.0075       C11-C1=1.3705        
C11-N10=1.3502       C11-H19=1.0713       H12-C1=1.0697        H13-C4=1.0743        H14-C7=1.0714        H15-C8=1.0900        
H16-C8=1.0877        H17-C8=1.0906        H18-N10=1.0075       H19-C11=1.0713       
 C  H  Rav=1.0793 sigma=0.0089  Rmin=1.0697  Rmax=1.0906     7
 C  C  Rav=1.4088 sigma=0.0451  Rmin=1.3542  Rmax=1.4871     7
 N  H  Rav=1.0075 sigma=0.0000  Rmin=1.0075  Rmax=1.0075     1
 N  C  Rav=1.3391 sigma=0.0111  Rmin=1.3280  Rmax=1.3502     2
 N  N  Rav=1.3277 sigma=0.0000  Rmin=1.3277  Rmax=1.3277     1
 S  C  Rav=1.7289 sigma=0.0115  Rmin=1.7174  Rmax=1.7405     2
 
 selected bond angles (degree)
 --------------------
C11-C1-C2=104.90               H12-C1-C2=127.48               H12-C1-C11=127.62              C3-C2-C1=128.24                
N9-C2-C1=110.12                N9-C2-C3=121.64                C4-C3-C2=123.31                C7-C3-C2=124.89                
C7-C3-C4=111.80                C5-C4-C3=113.62                H13-C4-C3=122.05               H13-C4-C5=124.33               
S6-C5-C4=110.92                C8-C5-C4=128.79                C8-C5-S6=120.29                C7-S6-C5= 91.37                
S6-C7-C3=112.29                H14-C7-C3=128.63               H14-C7-S6=119.08               H15-C8-C5=110.77               
H16-C8-C5=109.86               H16-C8-H15=109.01              H17-C8-C5=110.61               H17-C8-H15=107.78              
H17-C8-H16=108.75              N10-N9-C2=105.98               C11-N10-N9=112.42              H18-N10-N9=119.75              
H18-N10-C11=127.83             
 
 selected dihedral angles (degree)
 ---------------------------------
C3-C2-C1-C11=180.12           C3-C2-C1-H12=  0.09           N9-C2-C1-C11=  0.00           N9-C2-C1-H12=179.98           
C4-C3-C2-C1=179.54            C4-C3-C2-N9=359.67            C7-C3-C2-C1=359.68            C7-C3-C2-N9=179.81            
C5-C4-C3-C2=180.16            C5-C4-C3-C7=  0.03            H13-C4-C3-C2=  0.18           H13-C4-C3-C7=180.06           
S6-C5-C4-C3=  0.00            S6-C5-C4-H13=179.99           C8-C5-C4-C3=179.52            C8-C5-C4-H13=359.50           
C7-S6-C5-C4=359.95            C7-S6-C5-C8=180.40            S6-C7-C3-C2=179.80            S6-C7-C3-C4=359.93            
H14-C7-C3-C2=359.83           H14-C7-C3-C4=179.96           C3-C7-S6-C5=  0.07            H14-C7-S6-C5=180.04           
H15-C8-C5-C4=126.00           H15-C8-C5-S6=305.46           H16-C8-C5-C4=  5.51           H16-C8-C5-S6=184.98           
H17-C8-C5-C4=245.45           H17-C8-C5-S6= 64.91           N10-N9-C2-C1=  0.00           N10-N9-C2-C3=179.90           
C11-N10-N9-C2=  0.00          H18-N10-N9-C2=180.01          
           -------------------------------------------------
          |                Final Singlepoint                |
           -------------------------------------------------

          ...................................................
          :                      SETUP                      :
          :.................................................:
          :  # basis functions                  58          :
          :  # atomic orbitals                  57          :
          :  # shells                           31          :
          :  # electrons                        56          :
          :  max. iterations                   250          :
          :  Hamiltonian                  GFN2-xTB          :
          :  restarted?                      false          :
          :  GBSA solvation                  false          :
          :  PC potential                    false          :
          :  electronic temp.          300.0000000     K    :
          :  accuracy                    1.0000000          :
          :  -> integral cutoff          0.2500000E+02      :
          :  -> integral neglect         0.1000000E-07      :
          :  -> SCF convergence          0.1000000E-05 Eh   :
          :  -> wf. convergence          0.1000000E-03 e    :
          :  Broyden damping             0.4000000          :
          ...................................................

 iter      E             dE          RMSdq      gap      omega  full diag
   1    -30.7332503 -0.307333E+02  0.117E-04    3.40       0.0  T
   2    -30.7332503 -0.237286E-10  0.742E-05    3.40     309.1  T
   3    -30.7332503 -0.368914E-10  0.450E-05    3.40     510.1  T

   *** convergence criteria satisfied after 3 iterations ***

         #    Occupation            Energy/Eh            Energy/eV
      -------------------------------------------------------------
         1        2.0000           -0.7196692             -19.5832
       ...           ...                  ...                  ...
        22        2.0000           -0.4393506             -11.9553
        23        2.0000           -0.4356508             -11.8547
        24        2.0000           -0.4177375             -11.3672
        25        2.0000           -0.4024131             -10.9502
        26        2.0000           -0.3888008             -10.5798
        27        2.0000           -0.3818158             -10.3897
        28        2.0000           -0.3661336              -9.9630 (HOMO)
        29                         -0.2411954              -6.5633 (LUMO)
        30                         -0.2102665              -5.7216
        31                         -0.1930509              -5.2532
        32                         -0.1810150              -4.9257
        33                         -0.1080406              -2.9399
       ...                                ...                  ...
        57                          0.7379970              20.0819
      -------------------------------------------------------------
                  HL-Gap            0.1249382 Eh            3.3997 eV
             Fermi-level           -0.3036645 Eh           -8.2631 eV
 
 localization/xTB-IFF output generation
 averaging CT terms over            1  occ. levels
 averaging CT terms over            1  virt. levels
 dipole moment from electron density (au)
     X       Y       Z   
   0.8009   0.5500  -0.1206  total (Debye):    2.488
cpu  time for init local    0.00 s
wall time for init local    0.01 s
 doing rotations ...
 initialization of trafo matrix to unity
iteration     50  convergence  0.51685400D-05

 converged in     57 iterations, threshold :   0.99239895D-06
 doing transformations ...
 lmo centers(Z=2) and atoms on file <lmocent.coord>
 LMO Fii/eV  ncent    charge center   contributions...
    1 sigma -17.09   1.96   4.13295   2.97376  -0.37060   10N :  0.56    9N :  0.45
    2 sigma -16.55   1.92   5.98428   2.26450  -0.02554   10N :  0.58   11C :  0.43
    3 sigma -15.99   1.95   5.73970   4.17064  -0.66003   10N :  0.58   18H :  0.42
    4 sigma -14.87   1.93  -2.02815  -3.60173   1.38762    6S :  0.58    7C :  0.42
    5 sigma -14.83   1.94  -4.06354  -2.39455   0.88798    6S :  0.59    5C :  0.41
    6 sigma -14.68   1.97  -5.68758  -0.45748   0.18299    5C :  0.51    8C :  0.50
    7 sigma -14.59   2.02   1.27799  -0.21245   0.48804    2C :  0.50    3C :  0.50
    8 sigma -14.50   2.00   3.67204  -0.30929   0.66626    1C :  0.51    2C :  0.49
    9 sigma -14.47   2.01   7.96774   1.09425   0.47669   11C :  0.51   19H :  0.49
   10 sigma -14.45   2.00  -1.05709  -0.04002   0.29978    3C :  0.50    4C :  0.50
   11 sigma -14.11   2.00   0.43518  -4.12520   1.69251    7C :  0.51   14H :  0.49
   12 sigma -13.87   1.99  -7.61664  -0.92797  -0.83017    8C :  0.52   15H :  0.48
   13 LP    -13.87   1.19  -3.78115  -5.18185  -0.72448    6S :  0.92
   14 sigma -13.86   2.00  -7.64742  -0.08880   1.16724    8C :  0.52   17H :  0.48
   15 sigma -13.84   1.98  -7.07560   1.15870  -0.51974    8C :  0.52   16H :  0.48
   16 LP    -13.83   1.19  -4.00896  -3.68355   3.83745    6S :  0.91
   17 pi    -13.81   2.14   2.76987   1.43847  -0.44204    9N :  0.53    2C :  0.44
   18 sigma -13.80   2.01   5.12299  -2.01680   1.31070    1C :  0.51   12H :  0.49
   19 pi    -13.76   2.16   2.71617   1.72293   0.43303    9N :  0.52    2C :  0.44
   20 sigma -13.54   2.02  -2.24176   1.82876  -0.36678    4C :  0.51   13H :  0.48
   21 delpi -13.42   2.21   5.63143  -0.00885   0.16182    1C :  0.49   11C :  0.46
   22 delpi -13.42   2.21   5.57243   0.30047   1.11429    1C :  0.49   11C :  0.46
   23 pi    -13.32   1.61   5.15347   2.75314  -0.23729   10N :  0.78   11C :  0.10    9N :  0.08
   24 pi    -13.29   2.19  -0.19881  -2.03622   0.45042    7C :  0.48    3C :  0.48
   25 pi    -13.29   2.19  -0.25301  -1.72524   1.42324    7C :  0.48    3C :  0.48
   26 pi    -13.27   2.13  -3.23364  -0.01127   0.71608    4C :  0.49    5C :  0.48
   27 pi    -13.26   2.14  -3.18052  -0.32903  -0.27271    4C :  0.49    5C :  0.48
   28 LP    -11.62   1.02   1.62486   4.05415  -0.87632    9N :  0.99
 starting deloc pi regularization ...
 thr    2.20000000000000      # pi deloc LMO           5
 files:
 coordprot.0/xtbscreen.xyz/xtblmoinfo/lmocent.coord
 with protonation site input, xtbdock and
 LMO center info written
 

 SCC (total)                   0 d,  0 h,  0 min,  0.036 sec
 SCC setup                      ...        0 min,  0.000 sec (  0.423%)
 Dispersion                     ...        0 min,  0.000 sec (  0.338%)
 classical contributions        ...        0 min,  0.000 sec (  0.101%)
 integral evaluation            ...        0 min,  0.005 sec ( 12.437%)
 iterations                     ...        0 min,  0.005 sec ( 12.676%)
 molecular gradient             ...        0 min,  0.010 sec ( 27.691%)
 printout                       ...        0 min,  0.017 sec ( 46.203%)

         :::::::::::::::::::::::::::::::::::::::::::::::::::::
         ::                     SUMMARY                     ::
         :::::::::::::::::::::::::::::::::::::::::::::::::::::
         :: total energy             -30.276772130581 Eh    ::
         :: gradient norm              0.000934584798 Eh/a0 ::
         :: HOMO-LUMO gap              3.399740413274 eV    ::
         ::.................................................::
         :: SCC energy               -30.733250318329 Eh    ::
         :: -> isotropic ES            0.011030646203 Eh    ::
         :: -> anisotropic ES          0.003292088892 Eh    ::
         :: -> anisotropic XC          0.020634742977 Eh    ::
         :: -> dispersion             -0.017876658900 Eh    ::
         :: repulsion energy           0.456522399459 Eh    ::
         :: add. restraining           0.000000000000 Eh    ::
         :: total charge               0.000000000000 e     ::
         :::::::::::::::::::::::::::::::::::::::::::::::::::::

           -------------------------------------------------
          |                Property Printout                |
           -------------------------------------------------

    * Orbital Energies and Occupations

         #    Occupation            Energy/Eh            Energy/eV
      -------------------------------------------------------------
         1        2.0000           -0.7196692             -19.5832
       ...           ...                  ...                  ...
        16        2.0000           -0.4916360             -13.3781
        17        2.0000           -0.4789395             -13.0326
        18        2.0000           -0.4756094             -12.9420
        19        2.0000           -0.4658079             -12.6753
        20        2.0000           -0.4587196             -12.4824
        21        2.0000           -0.4525408             -12.3143
        22        2.0000           -0.4393506             -11.9553
        23        2.0000           -0.4356508             -11.8547
        24        2.0000           -0.4177375             -11.3672
        25        2.0000           -0.4024131             -10.9502
        26        2.0000           -0.3888008             -10.5798
        27        2.0000           -0.3818158             -10.3897
        28        2.0000           -0.3661336              -9.9630 (HOMO)
        29                         -0.2411954              -6.5633 (LUMO)
        30                         -0.2102665              -5.7216
        31                         -0.1930509              -5.2532
        32                         -0.1810150              -4.9257
        33                         -0.1080406              -2.9399
        34                         -0.0997188              -2.7135
        35                          0.0031147               0.0848
        36                          0.0198257               0.5395
        37                          0.0343382               0.9344
        38                          0.0448863               1.2214
        39                          0.1008731               2.7449
       ...                                ...                  ...
        57                          0.7379970              20.0819
      -------------------------------------------------------------
                  HL-Gap            0.1249382 Eh            3.3997 eV
             Fermi-level           -0.3036645 Eh           -8.2631 eV

     #   Z          covCN         q      C6AA      α(0)
     1   6 C        3.025    -0.075    29.842     8.961
     2   6 C        3.164     0.067    26.172     8.361
     3   6 C        3.158    -0.006    27.851     8.628
     4   6 C        3.121    -0.060    29.296     8.864
     5   6 C        2.979     0.027    27.389     8.585
     6  16 S        2.325    -0.056   143.395    20.154
     7   6 C        2.941    -0.029    28.727     8.790
     8   6 C        3.776    -0.107    22.570     6.769
     9   7 N        1.998    -0.227    26.756     7.672
    10   7 N        2.998     0.009    21.095     6.821
    11   6 C        3.007    -0.006    28.160     8.705
    12   1 H        0.927     0.025     2.652     2.547
    13   1 H        0.926     0.050     2.325     2.385
    14   1 H        0.926     0.039     2.467     2.456
    15   1 H        0.925     0.053     2.283     2.363
    16   1 H        0.925     0.050     2.316     2.380
    17   1 H        0.924     0.053     2.282     2.362
    18   1 H        0.860     0.160     1.332     1.808
    19   1 H        0.926     0.033     2.549     2.497

 Mol. C6AA /au·bohr⁶  :       5712.123279
 Mol. C8AA /au·bohr⁸  :     157110.581448
 Mol. α(0) /au        :        121.107283


Wiberg/Mayer (AO) data.
largest (>0.10) Wiberg bond orders for each atom

 ---------------------------------------------------------------------------
     #   Z sym  total        # sym  WBO       # sym  WBO       # sym  WBO
 ---------------------------------------------------------------------------
     1   6 C    3.980 --    11 C    1.539     2 C    1.299    12 H    0.974
     2   6 C    3.977 --     9 N    1.455     1 C    1.299     3 C    1.077
     3   6 C    3.987 --     7 C    1.560     4 C    1.210     2 C    1.077
     4   6 C    3.985 --     5 C    1.638     3 C    1.210    13 H    0.962
     5   6 C    3.951 --     4 C    1.638     6 S    1.138     8 C    1.037
                             7 C    0.104
     6  16 S    2.590 --     7 C    1.187     5 C    1.138
     7   6 C    3.943 --     3 C    1.560     6 S    1.187    14 H    0.970
                             5 C    0.104
     8   6 C    3.996 --     5 C    1.037    16 H    0.980    15 H    0.973
                            17 H    0.969
     9   7 N    2.965 --     2 C    1.455    10 N    1.215    11 C    0.160
    10   7 N    3.621 --    11 C    1.270     9 N    1.215    18 H    0.944
    11   6 C    3.958 --     1 C    1.539    10 N    1.270    19 H    0.969
                             9 N    0.160
    12   1 H    0.999 --     1 C    0.974
    13   1 H    0.998 --     4 C    0.962
    14   1 H    0.998 --     7 C    0.970
    15   1 H    0.997 --     8 C    0.973
    16   1 H    0.997 --     8 C    0.980
    17   1 H    0.997 --     8 C    0.969
    18   1 H    0.974 --    10 N    0.944
    19   1 H    0.998 --    11 C    0.969
 ---------------------------------------------------------------------------

Topologies differ in total number of bonds
Writing topology from bond orders to xtbtopo.mol

molecular dipole:
                 x           y           z       tot (Debye)
 q only:        0.241       0.454      -0.127
   full:        0.801       0.550      -0.121       2.488
molecular quadrupole (traceless):
                xx          xy          yy          xz          yz          zz
 q only:        8.042       3.195      -2.366      -0.132      -0.677      -5.676
  q+dip:       11.516       2.934      -3.071       0.610      -1.389      -8.445
   full:       11.041       2.606      -4.246       0.569      -0.392      -6.795

           -------------------------------------------------
          |                Geometry Summary                 |
           -------------------------------------------------

      molecular mass/u    :      164.2276070
   center of mass at/Å    :       -0.0175329      -0.2661689       0.2719837
  moments of inertia/u·Å² :        0.1789566E+03   0.9452188E+03   0.1121040E+04
rotational constants/cm⁻¹ :        0.9419958E-01   0.1783463E-01   0.1503750E-01

 * 20 selected distances

     #   Z          #   Z                                           value/Å
     1   6 C        2   6 C                                       1.4149330
     2   6 C        3   6 C                                       1.4457373
     3   6 C        4   6 C                                       1.4248574
     4   6 C        5   6 C                                       1.3542355
     5   6 C        6  16 S                                       1.7404636 (max)
     3   6 C        7   6 C                                       1.3641806
     6  16 S        7   6 C                                       1.7173805
     5   6 C        8   6 C                                       1.4870612
     2   6 C        9   7 N                                       1.3279982
     9   7 N       10   7 N                                       1.3277217
     1   6 C       11   6 C                                       1.3705222
    10   7 N       11   6 C                                       1.3501834
     1   6 C       12   1 H                                       1.0697345
     4   6 C       13   1 H                                       1.0742721
     7   6 C       14   1 H                                       1.0714465
     8   6 C       15   1 H                                       1.0900347
     8   6 C       16   1 H                                       1.0876774
     8   6 C       17   1 H                                       1.0905626
    10   7 N       18   1 H                                       1.0075036 (min)
    11   6 C       19   1 H                                       1.0713265

 * 6 distinct bonds (by element types)

   Z      Z             #   av. dist./Å        max./Å        min./Å
   1 H    6 C           7     1.0792935     1.0905626     1.0697345
   6 C    6 C           7     1.4087896     1.4870612     1.3542355
   1 H    7 N           1     1.0075036     1.0075036     1.0075036
   6 C    7 N           2     1.3390908     1.3501834     1.3279982
   7 N    7 N           1     1.3277217     1.3277217     1.3277217
   6 C   16 S           2     1.7289221     1.7404636     1.7173805


optimized geometry written to: xtbopt.xyz


           -------------------------------------------------
          | TOTAL ENERGY              -30.276772130581 Eh   |
          | GRADIENT NORM               0.000934584798 Eh/α |
          | HOMO-LUMO GAP               3.399740413274 eV   |
           -------------------------------------------------

------------------------------------------------------------------------
 * finished run on 2022/11/02 at 18:13:34.952     
------------------------------------------------------------------------
 total:
 * wall-time:     0 d,  0 h,  0 min,  0.990 sec
 *  cpu-time:     0 d,  0 h,  0 min,  0.921 sec
 * ratio c/w:     0.930 speedup
 SCF:
 * wall-time:     0 d,  0 h,  0 min,  0.065 sec
 *  cpu-time:     0 d,  0 h,  0 min,  0.046 sec
 * ratio c/w:     0.699 speedup
 ANC optimizer:
 * wall-time:     0 d,  0 h,  0 min,  0.865 sec
 *  cpu-time:     0 d,  0 h,  0 min,  0.845 sec
 * ratio c/w:     0.977 speedup

