19
 energy: -30.276772130581 gnorm: 0.000934584798 xtb: 6.4.1 (afa7bdf)
C         2.58939305406855   -0.40509206926504    0.47095827800874
C         1.33526069705065    0.19127924988676    0.19979666478419
C         0.02052145191283   -0.39939991595278    0.31255857410650
C        -1.18209915440959    0.30609751017402    0.01896741404508
C        -2.30222266766143   -0.43454520518861    0.19425398592037
S        -1.90669762401876   -2.04161774964936    0.73285527344555
C        -0.22782184852435   -1.68075934109802    0.70933603486332
C        -3.72177103435736   -0.03755108116850   -0.00228876809948
N         1.50293527450990    1.44732708143201   -0.19745431192299
N         2.81306700605527    1.66245251068426   -0.18646416483078
C         3.51000218761659    0.57596265633413    0.20953622787363
H         2.77643691166914   -1.40334629862401    0.80686761886209
H        -1.17739925133898    1.32889385825155   -0.30955352191740
H         0.47221276992245   -2.44113938003720    0.99177439228331
H        -4.22699824590776   -0.72951748341324   -0.67616092475127
H        -3.77039217336891    0.96469390198141   -0.42203048612368
H        -4.25778507633398   -0.04632717192483    0.94741580491358
H         3.17401663668379    2.56349072705508   -0.45648095807088
H         4.57934108643192    0.57909920052245    0.27468986661004
