      -----------------------------------------------------------      
     |                   =====================                   |     
     |                           x T B                           |     
     |                   =====================                   |     
     |                         S. Grimme                         |     
     |          Mulliken Center for Theoretical Chemistry        |     
     |                    University of Bonn                     |     
      -----------------------------------------------------------      

   * xtb version 6.4.1 (afa7bdf) compiled by 'ehlert@majestix' on 2021-06-10

   xtb is free software: you can redistribute it and/or modify it under
   the terms of the GNU Lesser General Public License as published by
   the Free Software Foundation, either version 3 of the License, or
   (at your option) any later version.
   
   xtb is distributed in the hope that it will be useful,
   but WITHOUT ANY WARRANTY; without even the implied warranty of
   MERCHANTABILITY or FITNESS FOR A PARTICULAR PURPOSE.  See the
   GNU Lesser General Public License for more details.
   
   Cite this work as:
   * C. Bannwarth, E. Caldeweyher, S. Ehlert, A. Hansen, P. Pracht,
     J. Seibert, S. Spicher, S. Grimme, WIREs Comput. Mol. Sci., 2020, 11,
     e01493. DOI: 10.1002/wcms.1493
   
   for GFN2-xTB:
   * C. Bannwarth, S. Ehlert and S. Grimme., J. Chem. Theory Comput., 2019,
     15, 1652-1671. DOI: 10.1021/acs.jctc.8b01176
   for GFN1-xTB:
   * S. Grimme, C. Bannwarth, P. Shushkov, J. Chem. Theory Comput., 2017,
     13, 1989-2009. DOI: 10.1021/acs.jctc.7b00118
   for GFN0-xTB:
   * P. Pracht, E. Caldeweyher, S. Ehlert, S. Grimme, ChemRxiv, 2019, preprint.
     DOI: 10.26434/chemrxiv.8326202.v1
   for GFN-FF:
   * S. Spicher and S. Grimme, Angew. Chem. Int. Ed., 2020, 59, 15665-15673.
     DOI: 10.1002/anie.202004239
   
   for DFT-D4:
   * E. Caldeweyher, C. Bannwarth and S. Grimme, J. Chem. Phys., 2017,
     147, 034112. DOI: 10.1063/1.4993215
   * E. Caldeweyher, S. Ehlert, A. Hansen, H. Neugebauer, S. Spicher,
     C. Bannwarth and S. Grimme, J. Chem. Phys., 2019, 150, 154122.
     DOI: 10.1063/1.5090222
   * E. Caldeweyher, J.-M. Mewes, S. Ehlert and S. Grimme, Phys. Chem. Chem. Phys.
     2020, 22, 8499-8512. DOI: 10.1039/D0CP00502A
   
   for sTDA-xTB:
   * S. Grimme and C. Bannwarth, J. Chem. Phys., 2016, 145, 054103.
     DOI: 10.1063/1.4959605
   
   in the mass-spec context:
   * V. Asgeirsson, C. Bauer and S. Grimme, Chem. Sci., 2017, 8, 4879.
     DOI: 10.1039/c7sc00601b
   * J. Koopman and S. Grimme, ACS Omega 2019, 4, 12, 15120-15133.
     DOI: 10.1021/acsomega.9b02011
   
   for metadynamics refer to:
   * S. Grimme, J. Chem. Theory Comput., 2019, 155, 2847-2862
     DOI: 10.1021/acs.jctc.9b00143
   
   for SPH calculations refer to:
   * S. Spicher and S. Grimme, J. Chem. Theory Comput., 2021, 17, 1701-1714
     DOI: 10.1021/acs.jctc.0c01306
   
   with help from (in alphabetical order)
   P. Atkinson, C. Bannwarth, F. Bohle, G. Brandenburg, E. Caldeweyher
   M. Checinski, S. Dohm, S. Ehlert, S. Ehrlich, I. Gerasimov, J. Koopman
   C. Lavigne, S. Lehtola, F. März, M. Müller, F. Musil, H. Neugebauer
   J. Pisarek, C. Plett, P. Pracht, J. Seibert, P. Shushkov, S. Spicher
   M. Stahn, M. Steiner, T. Strunk, J. Stückrath, T. Rose, and J. Unsleber
   
 * started run on 2022/11/02 at 18:13:35.659     

           -------------------------------------------------
          |                Calculation Setup                |
           -------------------------------------------------

          program call               : /lustre/hpc/kemi/borup/pKalculator/dep/xtb-6.4.1/bin/xtb --gfn 2 /lustre/hpc/kemi/borup/pKalculator/calc/test#-1=4/conf04/test#-1=4_conf04_gfn2.xyz --opt --lmo --chrg -1 --uhf 0
          hostname                   : fend01.cluster
          coordinate file            : /lustre/hpc/kemi/borup/pKalculator/calc/test#-1=4/conf04/test#-1=4_conf04_gfn2.xyz
          omp threads                :                     1
          number of atoms            :                    18
          number of electrons        :                    56
          charge                     :                    -1
          spin                       :                   0.0
          first test random number   :      0.90673784123394

   ID    Z sym.   atoms
    1    6 C      1-5, 8-10
    2    7 N      6, 7
    3   16 S      11
    4    1 H      12-18

           -------------------------------------------------
          |                 G F N 2 - x T B                 |
           -------------------------------------------------

        Reference                      10.1021/acs.jctc.8b01176
      * Hamiltonian:
        H0-scaling (s, p, d)           1.850000    2.230000    2.230000
        zeta-weighting                 0.500000
      * Dispersion:
        s8                             2.700000
        a1                             0.520000
        a2                             5.000000
        s9                             5.000000
      * Repulsion:
        kExp                           1.500000    1.000000
        rExp                           1.000000
      * Coulomb:
        alpha                          2.000000
        third order                    shell-resolved
        anisotropic                    true
        a3                             3.000000
        a5                             4.000000
        cn-shift                       1.200000
        cn-exp                         4.000000
        max-rad                        5.000000


          ...................................................
          :                      SETUP                      :
          :.................................................:
          :  # basis functions                  57          :
          :  # atomic orbitals                  56          :
          :  # shells                           30          :
          :  # electrons                        56          :
          :  max. iterations                   250          :
          :  Hamiltonian                  GFN2-xTB          :
          :  restarted?                      false          :
          :  GBSA solvation                  false          :
          :  PC potential                    false          :
          :  electronic temp.          300.0000000     K    :
          :  accuracy                    1.0000000          :
          :  -> integral cutoff          0.2500000E+02      :
          :  -> integral neglect         0.1000000E-07      :
          :  -> SCF convergence          0.1000000E-05 Eh   :
          :  -> wf. convergence          0.1000000E-03 e    :
          :  Broyden damping             0.4000000          :
          ...................................................

 iter      E             dE          RMSdq      gap      omega  full diag
   1    -30.1349583 -0.301350E+02  0.435E+00    2.65       0.0  T
   2    -30.0820393  0.529190E-01  0.406E+00    0.05       1.0  T
   3    -30.2648102 -0.182771E+00  0.203E+00    1.75       1.0  T
   4    -30.2935740 -0.287638E-01  0.103E+00    0.38       1.0  T
   5    -30.2741126  0.194614E-01  0.877E-01    0.09       1.0  T
   6    -30.2968121 -0.226995E-01  0.319E-01    0.69       1.0  T
   7    -30.2977256 -0.913514E-03  0.214E-01    0.57       1.0  T
   8    -30.2979764 -0.250728E-03  0.151E-01    0.52       1.0  T
   9    -30.2982044 -0.228069E-03  0.988E-02    0.43       1.0  T
  10    -30.2982936 -0.891757E-04  0.592E-02    0.39       1.0  T
  11    -30.2983445 -0.508796E-04  0.191E-02    0.34       1.2  T
  12    -30.2983483 -0.382420E-05  0.720E-03    0.33       3.3  T
  13    -30.2983491 -0.801254E-06  0.245E-03    0.33       9.6  T
  14    -30.2983492 -0.547759E-07  0.799E-04    0.33      29.5  T
  15    -30.2983492 -0.129608E-07  0.277E-04    0.33      85.1  T

   *** convergence criteria satisfied after 15 iterations ***

         #    Occupation            Energy/Eh            Energy/eV
      -------------------------------------------------------------
         1        2.0000           -0.5516844             -15.0121
       ...           ...                  ...                  ...
        22        2.0000           -0.2564347              -6.9779
        23        2.0000           -0.2507614              -6.8236
        24        2.0000           -0.2451309              -6.6704
        25        2.0000           -0.2338676              -6.3639
        26        2.0000           -0.1820967              -4.9551
        27        2.0000           -0.1603910              -4.3645
        28        1.9964           -0.0956239              -2.6021 (HOMO)
        29        0.0036           -0.0836176              -2.2754 (LUMO)
        30                         -0.0478358              -1.3017
        31                          0.0050231               0.1367
        32                          0.0061347               0.1669
        33                          0.0683141               1.8589
       ...                                ...                  ...
        56                          0.9086516              24.7257
      -------------------------------------------------------------
                  HL-Gap            0.0120063 Eh            0.3267 eV
             Fermi-level           -0.0896207 Eh           -2.4387 eV
 
 localization/xTB-IFF output generation
 averaging CT terms over            1  occ. levels
 averaging CT terms over            1  virt. levels
 dipole moment from electron density (au)
     X       Y       Z   
   2.4925   1.5225   1.4432  total (Debye):    8.281
cpu  time for init local    0.00 s
wall time for init local    0.01 s
 doing rotations ...
 initialization of trafo matrix to unity

 converged in     34 iterations, threshold :   0.99742448D-06
 doing transformations ...
 lmo centers(Z=2) and atoms on file <lmocent.coord>
 LMO Fii/eV  ncent    charge center   contributions...
    1 sigma -13.37   1.95   5.72221  -0.13938  -0.60294    7N :  0.57    6N :  0.44
    2 sigma -12.83   1.92   6.31355   1.21492   0.80806    7N :  0.58    8C :  0.43
    3 sigma -12.61   1.97   7.73683   0.25541  -0.33866    7N :  0.56   15H :  0.45
    4 sigma -11.23   2.01   6.57284   2.88889   2.58887   16H :  0.51    8C :  0.49
    5 sigma -10.43   1.99   2.81229   1.02869   0.88592    9C :  0.52    5C :  0.48
    6 sigma -10.00   2.01   2.32398   2.56090   2.57448    9C :  0.50   17H :  0.50
    7 pi     -9.77   2.16   4.43795   1.56675   2.08194    9C :  0.48    8C :  0.48
    8 pi     -9.76   2.16   4.38289   2.30868   1.39255    9C :  0.48    8C :  0.48
    9 pi     -9.74   2.12   3.76880   0.00261  -0.97632    6N :  0.55    5C :  0.41
   10 pi     -9.73   2.12   3.81846  -0.67479  -0.34716    6N :  0.55    5C :  0.41
   11 sigma  -9.61   2.01   1.36743  -0.31077  -0.44216    5C :  0.54    4C :  0.45
   12 sigma  -9.61   1.98  -7.40494  -1.02034   1.40275   14H :  0.51    1C :  0.49
   13 sigma  -9.59   1.98  -7.91016  -0.11242  -0.58873   13H :  0.51    1C :  0.49
   14 sigma  -9.54   1.98  -6.99805   1.15139   1.02187   12H :  0.51    1C :  0.50
   15 pi     -9.49   1.52   6.21951   0.53522   0.08249    7N :  0.80    8C :  0.09
   16 sigma  -9.39   1.95  -5.79350  -0.43346  -0.01152    1C :  0.55    2C :  0.46
   17 sigma  -9.33   1.95  -2.14903  -2.77689  -2.83399   11S :  0.57   10C :  0.43
   18 sigma  -9.10   2.00   0.41289  -3.12383  -3.41389   18H :  0.52   10C :  0.48
   19 sigma  -8.74   1.75  -4.22608  -2.07296  -1.90678   11S :  0.69    2C :  0.30
   20 LP     -8.44   1.16  -3.74448  -5.41998  -2.00973   11S :  0.93
   21 sigma  -8.43   2.00  -0.99877  -0.27048  -0.20722    4C :  0.56    3C :  0.43
   22 LP     -8.39   1.16  -3.96481  -1.81975  -5.25168   11S :  0.93
   23 LP     -7.91   1.03   5.05310  -1.97988  -2.53130    6N :  0.99
   24 delpi  -7.89   2.20  -0.24911  -1.15921  -1.98532   10C :  0.48    4C :  0.48
   25 delpi  -7.88   2.21  -0.19554  -1.91075  -1.29996   10C :  0.48    4C :  0.47
   26 pi     -6.72   2.17  -3.36655  -0.10701  -0.61000    2C :  0.55    3C :  0.40
   27 pi     -6.71   2.18  -3.30587  -0.86012   0.09172    2C :  0.54    3C :  0.40
   28 LP     -4.24   1.30  -3.13873   0.87068   1.16774    3C :  0.87    2C :  0.09
 starting deloc pi regularization ...
 thr    2.20000000000000      # pi deloc LMO           5
 files:
 coordprot.0/xtbscreen.xyz/xtblmoinfo/lmocent.coord
 with protonation site input, xtbdock and
 LMO center info written
 

 SCC (total)                   0 d,  0 h,  0 min,  0.050 sec
 SCC setup                      ...        0 min,  0.000 sec (  0.616%)
 Dispersion                     ...        0 min,  0.000 sec (  0.495%)
 classical contributions        ...        0 min,  0.000 sec (  0.117%)
 integral evaluation            ...        0 min,  0.005 sec (  9.249%)
 iterations                     ...        0 min,  0.018 sec ( 35.095%)
 molecular gradient             ...        0 min,  0.010 sec ( 19.137%)
 printout                       ...        0 min,  0.018 sec ( 35.185%)

         :::::::::::::::::::::::::::::::::::::::::::::::::::::
         ::                     SUMMARY                     ::
         :::::::::::::::::::::::::::::::::::::::::::::::::::::
         :: total energy             -29.876209363075 Eh    ::
         :: gradient norm              0.107648210088 Eh/a0 ::
         :: HOMO-LUMO gap              0.326707832457 eV    ::
         ::.................................................::
         :: SCC energy               -30.298349185914 Eh    ::
         :: -> isotropic ES            0.116685545199 Eh    ::
         :: -> anisotropic ES          0.009802792651 Eh    ::
         :: -> anisotropic XC          0.017378466112 Eh    ::
         :: -> dispersion             -0.018073372335 Eh    ::
         :: repulsion energy           0.422177508971 Eh    ::
         :: add. restraining           0.000000000000 Eh    ::
         :: total charge              -1.000000000000 e     ::
         :::::::::::::::::::::::::::::::::::::::::::::::::::::

      ----------------------------------------------------------- 
     |                   =====================                   |
     |                        A N C O P T                        |
     |                   =====================                   |
     |               Approximate Normal Coordinate               |
     |                Rational Function Optimizer                |
      ----------------------------------------------------------- 

          ...................................................
          :                      SETUP                      :
          :.................................................:
          :   optimization level            normal          :
          :   max. optcycles                   200          :
          :   ANC micro-cycles                  20          :
          :   degrees of freedom                48          :
          :.................................................:
          :   RF solver                   davidson          :
          :   write xtbopt.log                true          :
          :   linear?                        false          :
          :   energy convergence         0.5000000E-05 Eh   :
          :   grad. convergence          0.1000000E-02 Eh/α :
          :   maximium RF displ.         1.0000000          :
          :   Hlow (freq-cutoff)         0.1000000E-01      :
          :   Hmax (freq-cutoff)         5.0000000          :
          :   S6 in model hess.         20.0000000          :
          ...................................................

generating ANC from model Hessian ...
Using Lindh-Hessian (1995)
 Shifting diagonal of input Hessian by   8.133853266646647E-003
 Lowest  eigenvalues of input Hessian
    0.000000    0.000000    0.000000    0.000000    0.000000    0.000000
    0.010000    0.012085    0.012236    0.015827    0.018417    0.027653
    0.032164    0.034465    0.045243    0.048823    0.052373    0.072571
 Highest eigenvalues
    1.673230    1.826186    1.865150    1.938008    1.986198    2.063944
 

........................................................................
.............................. CYCLE    1 ..............................
........................................................................
   1    -30.2983492 -0.302983E+02  0.420E-04    0.33       0.0  T
   2    -30.2983492 -0.101436E-08  0.357E-04    0.33      66.0  T
   3    -30.2983492 -0.233774E-08  0.157E-04    0.33     150.5  T
     SCC iter.                  ...        0 min,  0.004 sec
     gradient                   ...        0 min,  0.009 sec
 * total energy  :   -29.8762094 Eh     change       -0.6386962E-09 Eh
   gradient norm :     0.1076477 Eh/α   predicted     0.0000000E+00 (-100.00%)
   displ. norm   :     0.3225612 α      lambda       -0.2413990E-01
   maximum displ.:     0.1843751 α      in ANC's #9, #31, #20, ...

........................................................................
.............................. CYCLE    2 ..............................
........................................................................
   1    -30.3128683 -0.303129E+02  0.656E-01    0.81       0.0  T
   2    -30.3128744 -0.609718E-05  0.405E-01    0.86       1.0  T
   3    -30.3117382  0.113621E-02  0.324E-01    0.83       1.0  T
   4    -30.3132979 -0.155972E-02  0.570E-02    0.85       1.0  T
   5    -30.3133053 -0.741120E-05  0.349E-02    0.85       1.0  T
   6    -30.3133144 -0.915310E-05  0.891E-03    0.85       2.6  T
   7    -30.3133146 -0.175563E-06  0.576E-03    0.85       4.1  T
   8    -30.3133149 -0.286910E-06  0.305E-03    0.85       7.7  T
   9    -30.3133150 -0.692374E-07  0.920E-04    0.85      25.6  T
  10    -30.3133150 -0.100413E-07  0.287E-04    0.85      82.1  T
     SCC iter.                  ...        0 min,  0.011 sec
     gradient                   ...        0 min,  0.009 sec
 * total energy  :   -29.8924176 Eh     change       -0.1620819E-01 Eh
   gradient norm :     0.0452013 Eh/α   predicted    -0.1332578E-01 ( -17.78%)
   displ. norm   :     0.2467958 α      lambda       -0.5921105E-02
   maximum displ.:     0.1782068 α      in ANC's #9, #7, #17, ...

........................................................................
.............................. CYCLE    3 ..............................
........................................................................
   1    -30.3215772 -0.303216E+02  0.353E-01    1.08       0.0  T
   2    -30.3215886 -0.113686E-04  0.237E-01    1.15       1.0  T
   3    -30.3215692  0.193670E-04  0.163E-01    1.12       1.0  T
   4    -30.3218568 -0.287558E-03  0.392E-02    1.13       1.0  T
   5    -30.3218670 -0.102429E-04  0.198E-02    1.13       1.2  T
   6    -30.3218689 -0.186339E-05  0.802E-03    1.13       2.9  T
   7    -30.3218699 -0.994848E-06  0.353E-03    1.13       6.7  T
   8    -30.3218700 -0.130776E-06  0.169E-03    1.13      14.0  T
   9    -30.3218700 -0.480676E-08  0.554E-04    1.13      42.5  T
  10    -30.3218700 -0.184654E-08  0.176E-04    1.13     134.0  T
     SCC iter.                  ...        0 min,  0.012 sec
     gradient                   ...        0 min,  0.010 sec
 * total energy  :   -29.8959392 Eh     change       -0.3521643E-02 Eh
   gradient norm :     0.0219028 Eh/α   predicted    -0.3140873E-02 ( -10.81%)
   displ. norm   :     0.1295493 α      lambda       -0.9074779E-03
   maximum displ.:     0.0733136 α      in ANC's #3, #9, #7, ...

........................................................................
.............................. CYCLE    4 ..............................
........................................................................
   1    -30.3253105 -0.303253E+02  0.125E-01    1.17       0.0  T
   2    -30.3253080  0.250374E-05  0.925E-02    1.21       1.0  T
   3    -30.3253797 -0.716551E-04  0.473E-02    1.19       1.0  T
   4    -30.3254015 -0.218532E-04  0.192E-02    1.19       1.2  T
   5    -30.3254039 -0.239438E-05  0.650E-03    1.19       3.6  T
   6    -30.3254040 -0.373281E-07  0.412E-03    1.19       5.7  T
   7    -30.3254042 -0.191807E-06  0.165E-03    1.19      14.3  T
   8    -30.3254042 -0.287292E-07  0.757E-04    1.19      31.1  T
   9    -30.3254042 -0.600338E-09  0.287E-04    1.19      82.2  T
     SCC iter.                  ...        0 min,  0.011 sec
     gradient                   ...        0 min,  0.010 sec
 * total energy  :   -29.8966358 Eh     change       -0.6966122E-03 Eh
   gradient norm :     0.0184287 Eh/α   predicted    -0.4613531E-03 ( -33.77%)
   displ. norm   :     0.2028421 α      lambda       -0.1089964E-02
   maximum displ.:     0.1441262 α      in ANC's #3, #7, #9, ...

........................................................................
.............................. CYCLE    5 ..............................
........................................................................
   1    -30.3297120 -0.303297E+02  0.230E-01    1.22       0.0  T
   2    -30.3296600  0.519434E-04  0.175E-01    1.30       1.0  T
   3    -30.3300177 -0.357725E-03  0.858E-02    1.24       1.0  T
   4    -30.3300930 -0.752255E-04  0.370E-02    1.25       1.0  T
   5    -30.3301009 -0.788374E-05  0.980E-03    1.25       2.4  T
   6    -30.3301010 -0.101321E-06  0.651E-03    1.25       3.6  T
   7    -30.3301013 -0.320880E-06  0.326E-03    1.25       7.2  T
   8    -30.3301014 -0.895786E-07  0.137E-03    1.25      17.2  T
   9    -30.3301014 -0.187953E-08  0.594E-04    1.25      39.7  T
  10    -30.3301014 -0.289119E-08  0.130E-04    1.25     181.4  T
     SCC iter.                  ...        0 min,  0.011 sec
     gradient                   ...        0 min,  0.009 sec
 * total energy  :   -29.8974072 Eh     change       -0.7713790E-03 Eh
   gradient norm :     0.0154817 Eh/α   predicted    -0.5674053E-03 ( -26.44%)
   displ. norm   :     0.1786675 α      lambda       -0.7315498E-03
   maximum displ.:     0.1402175 α      in ANC's #3, #7, #4, ...

........................................................................
.............................. CYCLE    6 ..............................
........................................................................
   1    -30.3335008 -0.303335E+02  0.266E-01    1.26       0.0  T
   2    -30.3333439  0.156881E-03  0.215E-01    1.35       1.0  T
   3    -30.3339856 -0.641685E-03  0.987E-02    1.28       1.0  T
   4    -30.3340774 -0.918623E-04  0.425E-02    1.29       1.0  T
   5    -30.3340876 -0.102151E-04  0.924E-03    1.29       2.6  T
   6    -30.3340877 -0.105640E-06  0.512E-03    1.29       4.6  T
   7    -30.3340878 -0.427437E-07  0.335E-03    1.29       7.0  T
   8    -30.3340879 -0.983654E-07  0.124E-03    1.29      19.0  T
   9    -30.3340879 -0.408335E-09  0.732E-04    1.29      32.2  T
  10    -30.3340879 -0.544255E-08  0.148E-04    1.29     159.5  T
     SCC iter.                  ...        0 min,  0.011 sec
     gradient                   ...        0 min,  0.010 sec
 * total energy  :   -29.8979644 Eh     change       -0.5571629E-03 Eh
   gradient norm :     0.0139017 Eh/α   predicted    -0.3774519E-03 ( -32.25%)
   displ. norm   :     0.2163466 α      lambda       -0.8241179E-03
   maximum displ.:     0.1651409 α      in ANC's #3, #5, #4, ...

........................................................................
.............................. CYCLE    7 ..............................
........................................................................
   1    -30.3378245 -0.303378E+02  0.409E-01    1.33       0.0  T
   2    -30.3372129  0.611645E-03  0.351E-01    1.46       1.0  T
   3    -30.3391655 -0.195263E-02  0.145E-01    1.37       1.0  T
   4    -30.3393576 -0.192056E-03  0.633E-02    1.37       1.0  T
   5    -30.3393792 -0.215877E-04  0.134E-02    1.37       1.8  T
   6    -30.3393794 -0.230501E-06  0.695E-03    1.37       3.4  T
   7    -30.3393795 -0.156980E-06  0.340E-03    1.37       6.9  T
   8    -30.3393796 -0.538765E-07  0.203E-03    1.37      11.6  T
   9    -30.3393796 -0.165056E-07  0.902E-04    1.37      26.1  T
  10    -30.3393796 -0.104997E-07  0.200E-04    1.37     118.0  T
     SCC iter.                  ...        0 min,  0.011 sec
     gradient                   ...        0 min,  0.009 sec
 * total energy  :   -29.8986160 Eh     change       -0.6516217E-03 Eh
   gradient norm :     0.0124681 Eh/α   predicted    -0.4313477E-03 ( -33.80%)
   displ. norm   :     0.3224299 α      lambda       -0.1159489E-02
   maximum displ.:     0.2155567 α      in ANC's #3, #5, #34, ...

........................................................................
.............................. CYCLE    8 ..............................
........................................................................
   1    -30.3427904 -0.303428E+02  0.722E-01    1.50       0.0  T
   2    -30.3400427  0.274776E-02  0.653E-01    1.67       1.0  T
   3    -30.3473563 -0.731358E-02  0.252E-01    1.55       1.0  T
   4    -30.3479474 -0.591149E-03  0.105E-01    1.55       1.0  T
   5    -30.3479978 -0.504277E-04  0.231E-02    1.55       1.0  T
   6    -30.3479981 -0.303329E-06  0.145E-02    1.55       1.6  T
   7    -30.3479996 -0.141952E-05  0.635E-03    1.55       3.7  T
   8    -30.3479998 -0.191962E-06  0.362E-03    1.55       6.5  T
   9    -30.3479998 -0.752282E-07  0.156E-03    1.55      15.2  T
  10    -30.3479998 -0.157628E-07  0.331E-04    1.55      71.2  T
  11    -30.3479998 -0.636760E-09  0.153E-04    1.55     154.2  T
     SCC iter.                  ...        0 min,  0.012 sec
     gradient                   ...        0 min,  0.009 sec
 * total energy  :   -29.8996355 Eh     change       -0.1019568E-02 Eh
   gradient norm :     0.0126488 Eh/α   predicted    -0.6400186E-03 ( -37.23%)
   displ. norm   :     0.6568618 α      lambda       -0.2756564E-02
   maximum displ.:     0.3415541 α      in ANC's #3, #34, #40, ...

........................................................................
.............................. CYCLE    9 ..............................
........................................................................
   1    -30.3446789 -0.303447E+02  0.149E+00    1.93       0.0  T
   2    -30.3309440  0.137350E-01  0.142E+00    1.83       1.0  T
   3    -30.3630990 -0.321550E-01  0.566E-01    1.87       1.0  T
   4    -30.3654702 -0.237116E-02  0.175E-01    1.83       1.0  T
   5    -30.3655665 -0.963199E-04  0.541E-02    1.81       1.0  T
   6    -30.3655748 -0.829385E-05  0.361E-02    1.82       1.0  T
   7    -30.3655856 -0.107824E-04  0.128E-02    1.82       1.8  T
   8    -30.3655863 -0.766129E-06  0.625E-03    1.82       3.8  T
   9    -30.3655865 -0.201556E-06  0.306E-03    1.82       7.7  T
  10    -30.3655866 -0.208869E-07  0.784E-04    1.82      30.1  T
  11    -30.3655866 -0.647368E-08  0.268E-04    1.82      88.0  T
     SCC iter.                  ...        0 min,  0.012 sec
     gradient                   ...        0 min,  0.009 sec
 * total energy  :   -29.9024616 Eh     change       -0.2826068E-02 Eh
   gradient norm :     0.0212894 Eh/α   predicted    -0.1972939E-02 ( -30.19%)
   displ. norm   :     0.8906265 α      lambda       -0.4868639E-02
   maximum displ.:     0.3438213 α      in ANC's #34, #3, #40, ...

........................................................................
.............................. CYCLE   10 ..............................
........................................................................
   1    -30.3480039 -0.303480E+02  0.144E+00    2.01       0.0  T
   2    -30.3332830  0.147209E-01  0.143E+00    1.68       1.0  T
   3    -30.3607424 -0.274594E-01  0.632E-01    1.80       1.0  T
   4    -30.3625510 -0.180855E-02  0.124E-01    1.73       1.0  T
   5    -30.3626716 -0.120624E-03  0.640E-02    1.72       1.0  T
   6    -30.3627074 -0.358239E-04  0.308E-02    1.72       1.0  T
   7    -30.3627139 -0.646635E-05  0.102E-02    1.73       2.3  T
   8    -30.3627152 -0.133777E-05  0.353E-03    1.73       6.7  T
   9    -30.3627153 -0.368952E-07  0.172E-03    1.73      13.7  T
  10    -30.3627153 -0.725516E-08  0.606E-04    1.73      38.9  T
  11    -30.3627153 -0.191649E-08  0.263E-04    1.73      89.5  T
     SCC iter.                  ...        0 min,  0.012 sec
     gradient                   ...        0 min,  0.009 sec
 * total energy  :   -29.9027692 Eh     change       -0.3075564E-03 Eh
   gradient norm :     0.0854777 Eh/α   predicted    -0.4365196E-02 (1319.32%)
   displ. norm   :     0.4350578 α      lambda       -0.5235547E-02
   maximum displ.:     0.2487448 α      in ANC's #3, #5, #34, ...

........................................................................
.............................. CYCLE   11 ..............................
........................................................................
   1    -30.3849287 -0.303849E+02  0.540E-01    1.74       0.0  T
   2    -30.3839219  0.100683E-02  0.448E-01    1.82       1.0  T
   3    -30.3856659 -0.174405E-02  0.258E-01    1.78       1.0  T
   4    -30.3861988 -0.532865E-03  0.319E-02    1.80       1.0  T
   5    -30.3862064 -0.764202E-05  0.151E-02    1.80       1.6  T
   6    -30.3862082 -0.178090E-05  0.706E-03    1.80       3.3  T
   7    -30.3862085 -0.295661E-06  0.283E-03    1.80       8.3  T
   8    -30.3862086 -0.108947E-06  0.106E-03    1.80      22.1  T
   9    -30.3862086 -0.107170E-08  0.381E-04    1.80      61.8  T
  10    -30.3862086 -0.470784E-09  0.150E-04    1.80     157.4  T
     SCC iter.                  ...        0 min,  0.012 sec
     gradient                   ...        0 min,  0.009 sec
 * total energy  :   -29.9044724 Eh     change       -0.1703254E-02 Eh
   gradient norm :     0.0435182 Eh/α   predicted    -0.3113243E-02 (  82.78%)
   displ. norm   :     0.7022547 α      lambda       -0.4404321E-02
   maximum displ.:     0.4741080 α      in ANC's #3, #7, #2, ...

........................................................................
.............................. CYCLE   12 ..............................
........................................................................
   1    -30.3538711 -0.303539E+02  0.721E-01    1.73       0.0  T
   2    -30.3527996  0.107149E-02  0.543E-01    1.85       1.0  T
   3    -30.3544765 -0.167683E-02  0.368E-01    1.81       1.0  T
   4    -30.3558483 -0.137180E-02  0.628E-02    1.84       1.0  T
   5    -30.3558763 -0.280214E-04  0.344E-02    1.84       1.0  T
   6    -30.3558822 -0.593133E-05  0.148E-02    1.84       1.6  T
   7    -30.3558842 -0.199947E-05  0.524E-03    1.84       4.5  T
   8    -30.3558845 -0.284046E-06  0.208E-03    1.84      11.3  T
   9    -30.3558845 -0.932039E-08  0.890E-04    1.84      26.5  T
  10    -30.3558845 -0.290396E-08  0.343E-04    1.84      68.7  T
     SCC iter.                  ...        0 min,  0.011 sec
     gradient                   ...        0 min,  0.009 sec
 * total energy  :   -29.8953159 Eh     change        0.9156559E-02 Eh
   gradient norm :     0.1122387 Eh/α   predicted    -0.3288182E-02 (-135.91%)
   displ. norm   :     0.3987753 α      lambda       -0.1574977E-01
   maximum displ.:     0.2471273 α      in ANC's #3, #7, #2, ...

........................................................................
.............................. CYCLE   13 ..............................
........................................................................
   1    -30.3686524 -0.303687E+02  0.496E-01    1.89       0.0  T
   2    -30.3678503  0.802159E-03  0.389E-01    1.81       1.0  T
   3    -30.3688811 -0.103088E-02  0.264E-01    1.84       1.0  T
   4    -30.3695768 -0.695641E-03  0.410E-02    1.81       1.0  T
   5    -30.3695897 -0.129459E-04  0.216E-02    1.81       1.1  T
   6    -30.3695918 -0.209619E-05  0.964E-03    1.81       2.4  T
   7    -30.3695927 -0.859331E-06  0.371E-03    1.81       6.3  T
   8    -30.3695928 -0.163258E-06  0.141E-03    1.82      16.7  T
   9    -30.3695928 -0.379324E-08  0.628E-04    1.81      37.5  T
  10    -30.3695928 -0.250482E-08  0.203E-04    1.81     116.2  T
     SCC iter.                  ...        0 min,  0.011 sec
     gradient                   ...        0 min,  0.009 sec
 * total energy  :   -29.9048316 Eh     change       -0.9515716E-02 Eh
   gradient norm :     0.0304468 Eh/α   predicted    -0.9127172E-02 (  -4.08%)
   displ. norm   :     0.3181416 α      lambda       -0.2317337E-02
   maximum displ.:     0.1899342 α      in ANC's #3, #7, #34, ...

........................................................................
.............................. CYCLE   14 ..............................
........................................................................
   1    -30.3807611 -0.303808E+02  0.384E-01    1.86       0.0  T
   2    -30.3801318  0.629307E-03  0.330E-01    1.79       1.0  T
   3    -30.3813219 -0.119006E-02  0.180E-01    1.81       1.0  T
   4    -30.3815565 -0.234617E-03  0.313E-02    1.80       1.0  T
   5    -30.3815645 -0.802802E-05  0.169E-02    1.79       1.4  T
   6    -30.3815664 -0.192960E-05  0.770E-03    1.79       3.1  T
   7    -30.3815668 -0.394399E-06  0.311E-03    1.79       7.6  T
   8    -30.3815670 -0.135105E-06  0.906E-04    1.79      26.0  T
   9    -30.3815670 -0.338219E-08  0.423E-04    1.79      55.7  T
     SCC iter.                  ...        0 min,  0.010 sec
     gradient                   ...        0 min,  0.009 sec
 * total energy  :   -29.9061721 Eh     change       -0.1340557E-02 Eh
   gradient norm :     0.0425879 Eh/α   predicted    -0.1275933E-02 (  -4.82%)
   displ. norm   :     0.5146544 α      lambda       -0.1632335E-02
   maximum displ.:     0.4818674 α      in ANC's #3, #13, #1, ...

........................................................................
.............................. CYCLE   15 ..............................
........................................................................
   1    -30.3812608 -0.303813E+02  0.229E-01    1.82       0.0  T
   2    -30.3812455  0.152428E-04  0.150E-01    1.84       1.0  T
   3    -30.3811050  0.140477E-03  0.123E-01    1.83       1.0  T
   4    -30.3813096 -0.204540E-03  0.315E-02    1.83       1.0  T
   5    -30.3813249 -0.152913E-04  0.854E-03    1.83       2.8  T
   6    -30.3813250 -0.171117E-06  0.517E-03    1.83       4.6  T
   7    -30.3813253 -0.294996E-06  0.131E-03    1.83      18.0  T
   8    -30.3813253 -0.127753E-07  0.526E-04    1.83      44.8  T
   9    -30.3813253 -0.108823E-09  0.226E-04    1.83     104.1  T
     SCC iter.                  ...        0 min,  0.010 sec
     gradient                   ...        0 min,  0.009 sec
 * total energy  :   -29.9070889 Eh     change       -0.9168069E-03 Eh
   gradient norm :     0.0566214 Eh/α   predicted    -0.1032340E-02 (  12.60%)
   displ. norm   :     0.4102855 α      lambda       -0.3228754E-02
   maximum displ.:     0.2375606 α      in ANC's #3, #11, #13, ...

........................................................................
.............................. CYCLE   16 ..............................
........................................................................
   1    -30.3847817 -0.303848E+02  0.311E-01    1.83       0.0  T
   2    -30.3842445  0.537182E-03  0.299E-01    1.77       1.0  T
   3    -30.3853325 -0.108800E-02  0.133E-01    1.80       1.0  T
   4    -30.3854084 -0.758807E-04  0.232E-02    1.79       1.0  T
   5    -30.3854118 -0.346471E-05  0.116E-02    1.78       2.0  T
   6    -30.3854128 -0.990294E-06  0.547E-03    1.78       4.3  T
   7    -30.3854131 -0.241988E-06  0.147E-03    1.79      16.1  T
   8    -30.3854131 -0.113925E-07  0.817E-04    1.79      28.9  T
   9    -30.3854131 -0.165663E-08  0.378E-04    1.79      62.3  T
     SCC iter.                  ...        0 min,  0.011 sec
     gradient                   ...        0 min,  0.009 sec
 * total energy  :   -29.9096651 Eh     change       -0.2576153E-02 Eh
   gradient norm :     0.0426348 Eh/α   predicted    -0.1886135E-02 ( -26.78%)
   displ. norm   :     0.5224868 α      lambda       -0.4659043E-02
   maximum displ.:     0.2820210 α      in ANC's #3, #11, #13, ...

........................................................................
.............................. CYCLE   17 ..............................
........................................................................
   1    -30.3891470 -0.303891E+02  0.410E-01    1.76       0.0  T
   2    -30.3886719  0.475176E-03  0.330E-01    1.68       1.0  T
   3    -30.3895867 -0.914880E-03  0.197E-01    1.72       1.0  T
   4    -30.3898971 -0.310330E-03  0.375E-02    1.70       1.0  T
   5    -30.3899087 -0.116723E-04  0.160E-02    1.70       1.5  T
   6    -30.3899108 -0.202116E-05  0.723E-03    1.70       3.3  T
   7    -30.3899112 -0.396885E-06  0.231E-03    1.70      10.2  T
   8    -30.3899112 -0.516526E-07  0.919E-04    1.70      25.6  T
   9    -30.3899112 -0.696271E-09  0.475E-04    1.70      49.6  T
     SCC iter.                  ...        0 min,  0.010 sec
     gradient                   ...        0 min,  0.009 sec
 * total energy  :   -29.9133901 Eh     change       -0.3724959E-02 Eh
   gradient norm :     0.0320755 Eh/α   predicted    -0.2965477E-02 ( -20.39%)
   displ. norm   :     0.6413815 α      lambda       -0.4400519E-02
   maximum displ.:     0.4013161 α      in ANC's #3, #13, #11, ...

........................................................................
.............................. CYCLE   18 ..............................
........................................................................
   1    -30.3850387 -0.303850E+02  0.526E-01    1.68       0.0  T
   2    -30.3843949  0.643763E-03  0.387E-01    1.64       1.0  T
   3    -30.3850166 -0.621652E-03  0.283E-01    1.66       1.0  T
   4    -30.3858516 -0.835054E-03  0.328E-02    1.65       1.0  T
   5    -30.3858608 -0.914025E-05  0.151E-02    1.65       1.6  T
   6    -30.3858620 -0.124094E-05  0.622E-03    1.65       3.8  T
   7    -30.3858623 -0.287812E-06  0.276E-03    1.65       8.5  T
   8    -30.3858624 -0.604368E-07  0.129E-03    1.65      18.3  T
   9    -30.3858624  0.635996E-09  0.484E-04    1.65      48.7  T
  10    -30.3858624 -0.166449E-08  0.162E-04    1.65     145.8  T
     SCC iter.                  ...        0 min,  0.011 sec
     gradient                   ...        0 min,  0.009 sec
 * total energy  :   -29.9167251 Eh     change       -0.3335087E-02 Eh
   gradient norm :     0.0346261 Eh/α   predicted    -0.3105384E-02 (  -6.89%)
   displ. norm   :     0.5027620 α      lambda       -0.4268153E-02
   maximum displ.:     0.3378266 α      in ANC's #3, #7, #13, ...

........................................................................
.............................. CYCLE   19 ..............................
........................................................................
   1    -30.4015416 -0.304015E+02  0.371E-01    1.65       0.0  T
   2    -30.4016051 -0.634894E-04  0.218E-01    1.67       1.0  T
   3    -30.4013146  0.290539E-03  0.182E-01    1.66       1.0  T
   4    -30.4017161 -0.401478E-03  0.436E-02    1.66       1.0  T
   5    -30.4017451 -0.290642E-04  0.108E-02    1.67       2.2  T
   6    -30.4017460 -0.823174E-06  0.462E-03    1.66       5.1  T
   7    -30.4017461 -0.139832E-06  0.236E-03    1.66      10.0  T
   8    -30.4017462 -0.548284E-07  0.747E-04    1.66      31.5  T
   9    -30.4017462 -0.273712E-09  0.380E-04    1.66      62.0  T
     SCC iter.                  ...        0 min,  0.010 sec
     gradient                   ...        0 min,  0.009 sec
 * total energy  :   -29.9185091 Eh     change       -0.1783950E-02 Eh
   gradient norm :     0.0491297 Eh/α   predicted    -0.2673489E-02 (  49.86%)
   displ. norm   :     0.5245058 α      lambda       -0.3421449E-02
   maximum displ.:     0.3797516 α      in ANC's #3, #13, #11, ...

........................................................................
.............................. CYCLE   20 ..............................
........................................................................
   1    -30.3897826 -0.303898E+02  0.453E-01    1.68       0.0  T
   2    -30.3895295  0.253077E-03  0.300E-01    1.69       1.0  T
   3    -30.3894958  0.337032E-04  0.252E-01    1.69       1.0  T
   4    -30.3902179 -0.722053E-03  0.419E-02    1.68       1.0  T
   5    -30.3902356 -0.177265E-04  0.145E-02    1.69       1.6  T
   6    -30.3902367 -0.114782E-05  0.472E-03    1.69       5.0  T
   7    -30.3902369 -0.146532E-06  0.200E-03    1.69      11.8  T
   8    -30.3902369 -0.261272E-07  0.126E-03    1.69      18.7  T
   9    -30.3902369 -0.649336E-08  0.535E-04    1.69      44.1  T
  10    -30.3902369 -0.936911E-09  0.172E-04    1.69     137.3  T
     SCC iter.                  ...        0 min,  0.011 sec
     gradient                   ...        0 min,  0.009 sec
 * total energy  :   -29.9204209 Eh     change       -0.1911846E-02 Eh
   gradient norm :     0.0391514 Eh/α   predicted    -0.2181361E-02 (  14.10%)
   displ. norm   :     0.3044870 α      lambda       -0.1644159E-02
   maximum displ.:     0.2733102 α      in ANC's #3, #7, #11, ...
 * RMSD in coord.:     0.8074037 α      energy gain  -0.4421158E-01 Eh

generating ANC from model Hessian ...
Using Lindh-Hessian (1995)
 Shifting diagonal of input Hessian by   9.425184388162830E-003
 Lowest  eigenvalues of input Hessian
    0.000000    0.000000    0.000000    0.000000    0.000000    0.000000
    0.010000    0.010773    0.011632    0.013188    0.014534    0.015598
    0.019645    0.024613    0.035800    0.042992    0.048586    0.049321
 Highest eigenvalues
    1.709973    1.907358    1.986382    2.039833    2.079337    2.534820
 

........................................................................
.............................. CYCLE   21 ..............................
........................................................................
   1    -30.3981238 -0.303981E+02  0.152E-01    1.71       0.0  T
   2    -30.3981296 -0.576848E-05  0.924E-02    1.73       1.0  T
   3    -30.3981061  0.234384E-04  0.725E-02    1.72       1.0  T
   4    -30.3981542 -0.480714E-04  0.237E-02    1.72       1.0  T
   5    -30.3981632 -0.894078E-05  0.571E-03    1.73       4.1  T
   6    -30.3981636 -0.456818E-06  0.214E-03    1.73      11.0  T
   7    -30.3981636 -0.252582E-07  0.736E-04    1.73      32.0  T
   8    -30.3981636 -0.520923E-08  0.225E-04    1.73     104.7  T
     SCC iter.                  ...        0 min,  0.010 sec
     gradient                   ...        0 min,  0.009 sec
 * total energy  :   -29.9216608 Eh     change       -0.1239867E-02 Eh
   gradient norm :     0.0260479 Eh/α   predicted     0.0000000E+00 (-100.00%)
   displ. norm   :     0.1577701 α      lambda       -0.9639187E-03
   maximum displ.:     0.1283652 α      in ANC's #3, #4, #12, ...

........................................................................
.............................. CYCLE   22 ..............................
........................................................................
   1    -30.4109261 -0.304109E+02  0.873E-02    1.75       0.0  T
   2    -30.4109377 -0.116027E-04  0.496E-02    1.73       1.0  T
   3    -30.4109346  0.306275E-05  0.311E-02    1.74       1.0  T
   4    -30.4109366 -0.202748E-05  0.168E-02    1.73       1.4  T
   5    -30.4109417 -0.507541E-05  0.410E-03    1.73       5.7  T
   6    -30.4109419 -0.191630E-06  0.112E-03    1.73      21.0  T
   7    -30.4109419 -0.260084E-08  0.595E-04    1.73      39.6  T
   8    -30.4109419 -0.307189E-08  0.187E-04    1.73     125.9  T
     SCC iter.                  ...        0 min,  0.009 sec
     gradient                   ...        0 min,  0.009 sec
 * total energy  :   -29.9223128 Eh     change       -0.6520056E-03 Eh
   gradient norm :     0.0071245 Eh/α   predicted    -0.4939550E-03 ( -24.24%)
   displ. norm   :     0.2590886 α      lambda       -0.6212476E-03
   maximum displ.:     0.2054806 α      in ANC's #3, #4, #5, ...

........................................................................
.............................. CYCLE   23 ..............................
........................................................................
   1    -30.4172664 -0.304173E+02  0.124E-01    1.75       0.0  T
   2    -30.4172641  0.225793E-05  0.759E-02    1.73       1.0  T
   3    -30.4172289  0.352150E-04  0.657E-02    1.74       1.0  T
   4    -30.4172857 -0.567653E-04  0.117E-02    1.74       2.0  T
   5    -30.4172874 -0.172425E-05  0.390E-03    1.74       6.0  T
   6    -30.4172876 -0.156207E-06  0.134E-03    1.74      17.6  T
   7    -30.4172876 -0.338299E-08  0.525E-04    1.74      44.9  T
   8    -30.4172876 -0.241945E-08  0.187E-04    1.74     125.8  T
     SCC iter.                  ...        0 min,  0.009 sec
     gradient                   ...        0 min,  0.009 sec
 * total energy  :   -29.9228333 Eh     change       -0.5204706E-03 Eh
   gradient norm :     0.0100886 Eh/α   predicted    -0.3314761E-03 ( -36.31%)
   displ. norm   :     0.4177155 α      lambda       -0.8215408E-03
   maximum displ.:     0.3182465 α      in ANC's #3, #4, #5, ...

........................................................................
.............................. CYCLE   24 ..............................
........................................................................
   1    -30.4179484 -0.304179E+02  0.212E-01    1.75       0.0  T
   2    -30.4179230  0.254369E-04  0.134E-01    1.73       1.0  T
   3    -30.4177949  0.128061E-03  0.121E-01    1.74       1.0  T
   4    -30.4180018 -0.206819E-03  0.989E-03    1.74       2.4  T
   5    -30.4180029 -0.115127E-05  0.462E-03    1.74       5.1  T
   6    -30.4180031 -0.169225E-06  0.178E-03    1.74      13.3  T
   7    -30.4180031 -0.752890E-08  0.600E-04    1.74      39.3  T
   8    -30.4180031 -0.209548E-08  0.304E-04    1.74      77.6  T
     SCC iter.                  ...        0 min,  0.009 sec
     gradient                   ...        0 min,  0.009 sec
 * total energy  :   -29.9235577 Eh     change       -0.7243966E-03 Eh
   gradient norm :     0.0070587 Eh/α   predicted    -0.4824445E-03 ( -33.40%)
   displ. norm   :     0.5399284 α      lambda       -0.8991192E-03
   maximum displ.:     0.4185739 α      in ANC's #3, #4, #5, ...

........................................................................
.............................. CYCLE   25 ..............................
........................................................................
   1    -30.4129634 -0.304130E+02  0.283E-01    1.73       0.0  T
   2    -30.4129205  0.429145E-04  0.179E-01    1.73       1.0  T
   3    -30.4126703  0.250171E-03  0.162E-01    1.74       1.0  T
   4    -30.4130518 -0.381425E-03  0.152E-02    1.73       1.5  T
   5    -30.4130547 -0.295730E-05  0.584E-03    1.73       4.0  T
   6    -30.4130548 -0.693130E-07  0.254E-03    1.73       9.3  T
   7    -30.4130549 -0.687360E-07  0.104E-03    1.73      22.7  T
   8    -30.4130549 -0.428864E-08  0.495E-04    1.73      47.6  T
   9    -30.4130549 -0.113523E-09  0.145E-04    1.73     162.8  T
     SCC iter.                  ...        0 min,  0.010 sec
     gradient                   ...        0 min,  0.009 sec
 * total energy  :   -29.9242776 Eh     change       -0.7198781E-03 Eh
   gradient norm :     0.0093915 Eh/α   predicted    -0.5805900E-03 ( -19.35%)
   displ. norm   :     0.4143842 α      lambda       -0.5135847E-03
   maximum displ.:     0.3350637 α      in ANC's #3, #4, #7, ...

........................................................................
.............................. CYCLE   26 ..............................
........................................................................
   1    -30.4100650 -0.304101E+02  0.228E-01    1.73       0.0  T
   2    -30.4100527  0.122575E-04  0.139E-01    1.73       1.0  T
   3    -30.4098505  0.202173E-03  0.125E-01    1.73       1.0  T
   4    -30.4101038 -0.253291E-03  0.142E-02    1.73       1.7  T
   5    -30.4101062 -0.238168E-05  0.589E-03    1.73       4.0  T
   6    -30.4101064 -0.150624E-06  0.230E-03    1.73      10.2  T
   7    -30.4101064 -0.608354E-07  0.894E-04    1.73      26.4  T
   8    -30.4101064 -0.387901E-08  0.420E-04    1.73      56.1  T
     SCC iter.                  ...        0 min,  0.010 sec
     gradient                   ...        0 min,  0.009 sec
 * total energy  :   -29.9246640 Eh     change       -0.3864040E-03 Eh
   gradient norm :     0.0117675 Eh/α   predicted    -0.3008936E-03 ( -22.13%)
   displ. norm   :     0.3592392 α      lambda       -0.3590679E-03
   maximum displ.:     0.2907836 α      in ANC's #3, #4, #7, ...

........................................................................
.............................. CYCLE   27 ..............................
........................................................................
   1    -30.4100689 -0.304101E+02  0.205E-01    1.73       0.0  T
   2    -30.4100664  0.248502E-05  0.122E-01    1.73       1.0  T
   3    -30.4099057  0.160718E-03  0.102E-01    1.73       1.0  T
   4    -30.4100911 -0.185373E-03  0.131E-02    1.73       1.8  T
   5    -30.4100928 -0.172865E-05  0.628E-03    1.73       3.8  T
   6    -30.4100930 -0.260216E-06  0.216E-03    1.73      10.9  T
   7    -30.4100931 -0.555116E-07  0.787E-04    1.73      30.0  T
   8    -30.4100931 -0.325137E-08  0.383E-04    1.73      61.6  T
     SCC iter.                  ...        0 min,  0.009 sec
     gradient                   ...        0 min,  0.009 sec
 * total energy  :   -29.9249178 Eh     change       -0.2538335E-03 Eh
   gradient norm :     0.0118640 Eh/α   predicted    -0.2026953E-03 ( -20.15%)
   displ. norm   :     0.2803410 α      lambda       -0.2492982E-03
   maximum displ.:     0.2359634 α      in ANC's #3, #4, #7, ...

........................................................................
.............................. CYCLE   28 ..............................
........................................................................
   1    -30.4135329 -0.304135E+02  0.177E-01    1.74       0.0  T
   2    -30.4135348 -0.187764E-05  0.105E-01    1.73       1.0  T
   3    -30.4134516  0.831752E-04  0.691E-02    1.74       1.0  T
   4    -30.4135429 -0.913153E-04  0.116E-02    1.73       2.0  T
   5    -30.4135441 -0.113885E-05  0.561E-03    1.73       4.2  T
   6    -30.4135443 -0.212040E-06  0.191E-03    1.73      12.3  T
   7    -30.4135443 -0.464701E-07  0.566E-04    1.73      41.7  T
   8    -30.4135443 -0.216502E-08  0.295E-04    1.73      80.0  T
     SCC iter.                  ...        0 min,  0.009 sec
     gradient                   ...        0 min,  0.009 sec
 * total energy  :   -29.9250687 Eh     change       -0.1509498E-03 Eh
   gradient norm :     0.0058894 Eh/α   predicted    -0.1344430E-03 ( -10.94%)
   displ. norm   :     0.2116915 α      lambda       -0.1252989E-03
   maximum displ.:     0.1661656 α      in ANC's #3, #4, #6, ...

........................................................................
.............................. CYCLE   29 ..............................
........................................................................
   1    -30.4156158 -0.304156E+02  0.134E-01    1.74       0.0  T
   2    -30.4156160 -0.170040E-06  0.797E-02    1.73       1.0  T
   3    -30.4155601  0.559400E-04  0.579E-02    1.74       1.0  T
   4    -30.4156222 -0.621293E-04  0.885E-03    1.74       2.7  T
   5    -30.4156229 -0.688711E-06  0.370E-03    1.74       6.4  T
   6    -30.4156229 -0.441221E-07  0.150E-03    1.74      15.7  T
   7    -30.4156230 -0.321494E-07  0.406E-04    1.74      58.1  T
   8    -30.4156230 -0.101342E-08  0.223E-04    1.74     105.8  T
     SCC iter.                  ...        0 min,  0.009 sec
     gradient                   ...        0 min,  0.009 sec
 * total energy  :   -29.9251368 Eh     change       -0.6803344E-04 Eh
   gradient norm :     0.0037019 Eh/α   predicted    -0.6545540E-04 (  -3.79%)
   displ. norm   :     0.0827706 α      lambda       -0.3336998E-04
   maximum displ.:     0.0664404 α      in ANC's #3, #4, #5, ...

........................................................................
.............................. CYCLE   30 ..............................
........................................................................
   1    -30.4166117 -0.304166E+02  0.505E-02    1.74       0.0  T
   2    -30.4166118 -0.120742E-06  0.298E-02    1.74       1.0  T
   3    -30.4166044  0.735589E-05  0.224E-02    1.74       1.1  T
   4    -30.4166127 -0.828432E-05  0.391E-03    1.74       6.0  T
   5    -30.4166129 -0.184341E-06  0.121E-03    1.74      19.5  T
   6    -30.4166129 -0.206576E-08  0.470E-04    1.74      50.1  T
   7    -30.4166129 -0.191632E-08  0.160E-04    1.74     147.7  T
     SCC iter.                  ...        0 min,  0.008 sec
     gradient                   ...        0 min,  0.009 sec
 * total energy  :   -29.9251575 Eh     change       -0.2070836E-04 Eh
   gradient norm :     0.0019867 Eh/α   predicted    -0.1679786E-04 ( -18.88%)
   displ. norm   :     0.0409828 α      lambda       -0.1022150E-04
   maximum displ.:     0.0325128 α      in ANC's #3, #12, #5, ...

........................................................................
.............................. CYCLE   31 ..............................
........................................................................
   1    -30.4179648 -0.304180E+02  0.290E-02    1.75       0.0  T
   2    -30.4179656 -0.730314E-06  0.165E-02    1.74       1.4  T
   3    -30.4179650  0.533428E-06  0.858E-03    1.74       2.7  T
   4    -30.4179656 -0.588051E-06  0.330E-03    1.74       7.2  T
   5    -30.4179658 -0.162689E-06  0.117E-03    1.74      20.1  T
   6    -30.4179658 -0.165581E-07  0.404E-04    1.74      58.4  T
   7    -30.4179658 -0.482260E-09  0.211E-04    1.74     111.8  T
     SCC iter.                  ...        0 min,  0.008 sec
     gradient                   ...        0 min,  0.010 sec
 * total energy  :   -29.9251619 Eh     change       -0.4369545E-05 Eh
   gradient norm :     0.0021688 Eh/α   predicted    -0.5114470E-05 (  17.05%)
   displ. norm   :     0.0147058 α      lambda       -0.3929544E-05
   maximum displ.:     0.0090544 α      in ANC's #3, #4, #5, ...

........................................................................
.............................. CYCLE   32 ..............................
........................................................................
   1    -30.4172195 -0.304172E+02  0.122E-02    1.74       0.0  T
   2    -30.4172195 -0.103377E-07  0.738E-03    1.74       3.2  T
   3    -30.4172191  0.412665E-06  0.587E-03    1.74       4.0  T
   4    -30.4172196 -0.500192E-06  0.120E-03    1.74      19.6  T
   5    -30.4172196 -0.213502E-07  0.272E-04    1.74      86.6  T
   6    -30.4172196 -0.416449E-09  0.125E-04    1.74     189.2  T
     SCC iter.                  ...        0 min,  0.007 sec
     gradient                   ...        0 min,  0.009 sec
 * total energy  :   -29.9251641 Eh     change       -0.2272684E-05 Eh
   gradient norm :     0.0006410 Eh/α   predicted    -0.1964357E-05 ( -13.57%)
   displ. norm   :     0.0251787 α      lambda       -0.1313402E-05
   maximum displ.:     0.0200417 α      in ANC's #3, #4, #10, ...

   *** GEOMETRY OPTIMIZATION CONVERGED AFTER 32 ITERATIONS ***

------------------------------------------------------------------------
 total energy gain   :        -0.0489548 Eh      -30.7196 kcal/mol
 total RMSD          :         1.2925684 a0        0.6840 Å
 total power (kW/mol):        -4.0165849 (step) -160.9348 (real)
------------------------------------------------------------------------

 ANCopt (total)                0 d,  0 h,  0 min,  0.799 sec
 optimizer setup                ...        0 min,  0.000 sec (  0.061%)
 model hessian                  ...        0 min,  0.004 sec (  0.488%)
 ANC generation                 ...        0 min,  0.001 sec (  0.177%)
 coordinate transformation      ...        0 min,  0.000 sec (  0.058%)
 single point calculation       ...        0 min,  0.778 sec ( 97.420%)
 optimization log               ...        0 min,  0.005 sec (  0.686%)
 hessian update                 ...        0 min,  0.000 sec (  0.057%)
 rational function              ...        0 min,  0.006 sec (  0.785%)

================
 final structure:
================
18
 xtb: 6.4.1 (afa7bdf)
C        -3.53683399381474    0.42579213743932    0.73304042327209
C        -2.25459188973555    0.01043333528773    0.19205432013734
C        -1.19495404448403   -0.33801616354987   -0.26314530301877
C         0.04409221633157   -0.74724668952843   -0.79863651180552
C         1.22050445236596   -0.13932270203599   -0.24504888480138
N         2.46814839032794   -0.40516752572280   -0.63916464865754
N         3.26675203735039    0.36733666173842    0.12437075492014
C         2.56207370391210    1.12397065884269    0.99923281055767
C         1.24356051358322    0.83255663513681    0.79950157121552
C         0.12231648448365   -1.68323853842537   -1.80408794797143
S        -1.14863960910847   -2.48283155742344   -2.55347427658409
H        -3.44177529058716    1.38501781323560    1.25028423164337
H        -4.26770344853519    0.53546864757602   -0.07146204659805
H        -3.91493027469399   -0.31518111457190    1.44329772517518
H         4.26366899842279    0.33108920896080   -0.00497704442372
H         3.05366439959375    1.79480167983250    1.68008637739675
H         0.39130762892717    1.23636885952239    1.30823160867134
H         1.12333872566063   -1.93182934631441   -2.15010515912901
 
 Bond Distances (Angstroems)
 ---------------------------
C1-C2=1.4524         C1-H12=1.0939        C1-H13=1.0924        C1-H14=1.0938        C2-C1=1.4524         C2-C3=1.2048         
C3-C2=1.2048         C3-C4=1.4105         C4-C3=1.4105         C4-C5=1.4353         C4-C10=1.3759        C5-C4=1.4353         
C5-N6=1.3351         C5-C9=1.4269         N6-C5=1.3351         N6-N7=1.3482         N7-N6=1.3482         N7-C8=1.3544         
N7-H15=1.0059        C8-N7=1.3544         C8-C9=1.3650         C8-H16=1.0748        C9-C5=1.4269         C9-C8=1.3650         
C9-H17=1.0715        C10-C4=1.3759        C10-S11=1.6782       C10-H18=1.0879       S11-C10=1.6782       H12-C1=1.0939        
H13-C1=1.0924        H14-C1=1.0938        H15-N7=1.0059        H16-C8=1.0748        H17-C9=1.0715        H18-C10=1.0879       
 C  H  Rav=1.0857 sigma=0.0092  Rmin=1.0715  Rmax=1.0939     6
 C  C  Rav=1.3815 sigma=0.0778  Rmin=1.2048  Rmax=1.4524     7
 N  H  Rav=1.0059 sigma=0.0000  Rmin=1.0059  Rmax=1.0059     1
 N  C  Rav=1.3448 sigma=0.0096  Rmin=1.3351  Rmax=1.3544     2
 N  N  Rav=1.3482 sigma=0.0000  Rmin=1.3482  Rmax=1.3482     1
 S  C  Rav=1.6782 sigma=0.0000  Rmin=1.6782  Rmax=1.6782     1
 
 selected bond angles (degree)
 --------------------
H12-C1-C2=110.50               H13-C1-C2=110.19               H13-C1-H12=108.56              H14-C1-C2=110.69               
H14-C1-H12=108.48              H14-C1-H13=108.36              C3-C2-C1=179.59                C4-C3-C2=179.87                
C5-C4-C3=116.79                C10-C4-C3=121.65               C10-C4-C5=121.56               N6-C5-C4=124.59                
C9-C5-C4=125.74                C9-C5-N6=109.67                N7-N6-C5=105.80                C8-N7-N6=112.19                
H15-N7-N6=119.58               H15-N7-C8=128.23               C9-C8-N7=106.78                H16-C8-N7=121.32               
H16-C8-C9=131.89               C8-C9-C5=105.55                H17-C9-C5=126.25               H17-C9-C8=128.19               
S11-C10-C4=127.40              H18-C10-C4=116.11              H18-C10-S11=116.48             
 
 selected dihedral angles (degree)
 ---------------------------------
C3-C2-C1-H12=211.36           C3-C2-C1-H13=331.33           C3-C2-C1-H14= 91.17           C4-C3-C2-C1=  4.08            
C5-C4-C3-C2=163.88            C10-C4-C3-C2=343.93           N6-C5-C4-C3=180.38            N6-C5-C4-C10=  0.33           
C9-C5-C4-C3=  0.36            C9-C5-C4-C10=180.30           N7-N6-C5-C4=180.00            N7-N6-C5-C9=  0.00            
C8-N7-N6-C5=359.96            H15-N7-N6-C5=180.19           C9-C8-N7-N6=  0.04            C9-C8-N7-H15=179.79           
H16-C8-N7-N6=179.98           H16-C8-N7-H15=359.72          C8-C9-C5-C4=180.02            C8-C9-C5-N6=  0.00            
H17-C9-C5-C4=  0.03           H17-C9-C5-N6=180.01           C5-C9-C8-N7=359.97            C5-C9-C8-H16=180.05           
H17-C9-C8-N7=179.97           H17-C9-C8-H16=  0.04          S11-C10-C4-C3=359.91          S11-C10-C4-C5=179.97          
H18-C10-C4-C3=179.96          H18-C10-C4-C5=  0.00          
           -------------------------------------------------
          |                Final Singlepoint                |
           -------------------------------------------------

          ...................................................
          :                      SETUP                      :
          :.................................................:
          :  # basis functions                  57          :
          :  # atomic orbitals                  56          :
          :  # shells                           30          :
          :  # electrons                        56          :
          :  max. iterations                   250          :
          :  Hamiltonian                  GFN2-xTB          :
          :  restarted?                      false          :
          :  GBSA solvation                  false          :
          :  PC potential                    false          :
          :  electronic temp.          300.0000000     K    :
          :  accuracy                    1.0000000          :
          :  -> integral cutoff          0.2500000E+02      :
          :  -> integral neglect         0.1000000E-07      :
          :  -> SCF convergence          0.1000000E-05 Eh   :
          :  -> wf. convergence          0.1000000E-03 e    :
          :  Broyden damping             0.4000000          :
          ...................................................

 iter      E             dE          RMSdq      gap      omega  full diag
   1    -30.4172196 -0.304172E+02  0.557E-05    1.74       0.0  T
   2    -30.4172196 -0.845546E-11  0.364E-05    1.74     647.2  T
   3    -30.4172196 -0.184635E-10  0.179E-05    1.74    1316.8  T

   *** convergence criteria satisfied after 3 iterations ***

         #    Occupation            Energy/Eh            Energy/eV
      -------------------------------------------------------------
         1        2.0000           -0.5533967             -15.0587
       ...           ...                  ...                  ...
        22        2.0000           -0.2612987              -7.1103
        23        2.0000           -0.2560870              -6.9685
        24        2.0000           -0.2488113              -6.7705
        25        2.0000           -0.2384878              -6.4896
        26        2.0000           -0.2277424              -6.1972
        27        2.0000           -0.1590159              -4.3270
        28        2.0000           -0.1487113              -4.0466 (HOMO)
        29                         -0.0846594              -2.3037 (LUMO)
        30                         -0.0595869              -1.6214
        31                         -0.0086085              -0.2342
        32                          0.0079020               0.2150
        33                          0.0545204               1.4836
       ...                                ...                  ...
        56                          1.5766396              42.9025
      -------------------------------------------------------------
                  HL-Gap            0.0640519 Eh            1.7429 eV
             Fermi-level           -0.1166854 Eh           -3.1752 eV
 
 localization/xTB-IFF output generation
 averaging CT terms over            1  occ. levels
 averaging CT terms over            1  virt. levels
 dipole moment from electron density (au)
     X       Y       Z   
   1.5828   3.5613   3.6626  total (Debye):   13.594
cpu  time for init local    0.00 s
wall time for init local    0.00 s
 doing rotations ...
 initialization of trafo matrix to unity
iteration     50  convergence  0.24487398D-02
iteration    100  convergence  0.13720024D-03

 converged in    119 iterations, threshold :   0.99992501D-06
 doing transformations ...
 lmo centers(Z=2) and atoms on file <lmocent.coord>
 LMO Fii/eV  ncent    charge center   contributions...
    1 sigma -13.22   1.95   5.48386   0.02325  -0.47739    7N :  0.57    6N :  0.44
    2 sigma -12.97   1.92   5.65050   1.44268   0.92908    7N :  0.58    8C :  0.43
    3 sigma -12.70   1.97   7.34015   0.66444   0.08844    7N :  0.56   15H :  0.44
    4 sigma -11.33   2.01   5.46892   2.97932   2.75584   16H :  0.51    8C :  0.49
    5 sigma -10.79   1.98  -5.48456   0.42042   0.88664    1C :  0.52    2C :  0.48
    6 sigma -10.67   2.00  -6.53169   1.99761   2.02085   12H :  0.50    1C :  0.50
    7 sigma -10.59   2.00   2.22834   0.67827   0.55256    9C :  0.52    5C :  0.48
    8 sigma -10.58   2.00  -7.12145  -0.13407   2.25903    1C :  0.50   14H :  0.50
    9 sigma -10.54   2.00  -7.56120   0.93123   0.36650    1C :  0.50   13H :  0.50
   10 sigma -10.28   2.01   1.27105   2.08655   2.15692   17H :  0.50    9C :  0.49
   11 sigma -10.22   2.04   1.20255  -0.82524  -0.97404    5C :  0.52    4C :  0.47
   12 sigma -10.16   2.02  -1.11993  -1.00243  -0.97545    3C :  0.52    4C :  0.47
   13 pi     -9.86   2.16   3.48717   2.15358   1.29191    9C :  0.49    8C :  0.47
   14 pi     -9.84   2.16   3.54171   1.39891   1.97408    9C :  0.49    8C :  0.47
   15 pi     -9.75   2.10   3.61217  -0.16763  -1.15167    6N :  0.56    5C :  0.41
   16 pi     -9.74   2.10   3.66593  -0.84145  -0.51825    6N :  0.55    5C :  0.41
   17 pi     -9.61   1.54   5.78641   0.66310   0.44146    7N :  0.80    8C :  0.11
   18 sigma  -9.01   1.99   1.50517  -3.49908  -3.85159   18H :  0.51   10C :  0.49
   19 pi     -8.60   2.02  -2.99943   0.09805   0.28481    2C :  0.51    3C :  0.49
   20 pi     -8.44   2.05  -3.36675  -0.87074   0.11983    2C :  0.51    3C :  0.48
   21 pi     -8.43   2.05  -3.45609  -0.17260  -0.62001    2C :  0.51    3C :  0.48
   22 delpi  -8.33   2.28   0.10549  -1.70223  -2.52723    4C :  0.54   10C :  0.39
   23 delpi  -8.32   2.28   0.15967  -2.40254  -1.86562    4C :  0.54   10C :  0.39
   24 LP     -7.83   1.02  -1.11936  -6.62032  -6.96789   11S :  0.99
   25 LP     -7.78   1.02   5.37296  -1.90130  -2.49150    6N :  0.99
   26 LP     -7.74   1.03  -4.93039  -3.92581  -3.78784   11S :  0.99
   27 pi     -7.67   1.83  -1.22324  -4.48868  -3.86949   11S :  0.66   10C :  0.33
   28 pi     -7.66   1.84  -1.28319  -3.67648  -4.62979   11S :  0.66   10C :  0.33
 starting deloc pi regularization ...
 thr    2.20000000000000      # pi deloc LMO           8
 files:
 coordprot.0/xtbscreen.xyz/xtblmoinfo/lmocent.coord
 with protonation site input, xtbdock and
 LMO center info written
 

 SCC (total)                   0 d,  0 h,  0 min,  0.038 sec
 SCC setup                      ...        0 min,  0.000 sec (  0.391%)
 Dispersion                     ...        0 min,  0.000 sec (  0.295%)
 classical contributions        ...        0 min,  0.000 sec (  0.089%)
 integral evaluation            ...        0 min,  0.004 sec ( 11.159%)
 iterations                     ...        0 min,  0.004 sec ( 11.019%)
 molecular gradient             ...        0 min,  0.010 sec ( 25.071%)
 printout                       ...        0 min,  0.020 sec ( 51.851%)

         :::::::::::::::::::::::::::::::::::::::::::::::::::::
         ::                     SUMMARY                     ::
         :::::::::::::::::::::::::::::::::::::::::::::::::::::
         :: total energy             -29.925164127778 Eh    ::
         :: gradient norm              0.000641064416 Eh/a0 ::
         :: HOMO-LUMO gap              1.742939610884 eV    ::
         ::.................................................::
         :: SCC energy               -30.417219645954 Eh    ::
         :: -> isotropic ES            0.116890441019 Eh    ::
         :: -> anisotropic ES          0.012144380776 Eh    ::
         :: -> anisotropic XC          0.022262264363 Eh    ::
         :: -> dispersion             -0.017127999606 Eh    ::
         :: repulsion energy           0.492047617144 Eh    ::
         :: add. restraining           0.000000000000 Eh    ::
         :: total charge              -1.000000000000 e     ::
         :::::::::::::::::::::::::::::::::::::::::::::::::::::

           -------------------------------------------------
          |                Property Printout                |
           -------------------------------------------------

    * Orbital Energies and Occupations

         #    Occupation            Energy/Eh            Energy/eV
      -------------------------------------------------------------
         1        2.0000           -0.5533967             -15.0587
       ...           ...                  ...                  ...
        16        2.0000           -0.3492140              -9.5026
        17        2.0000           -0.3416839              -9.2977
        18        2.0000           -0.3251448              -8.8476
        19        2.0000           -0.2991922              -8.1414
        20        2.0000           -0.2980573              -8.1106
        21        2.0000           -0.2680852              -7.2950
        22        2.0000           -0.2612987              -7.1103
        23        2.0000           -0.2560870              -6.9685
        24        2.0000           -0.2488113              -6.7705
        25        2.0000           -0.2384878              -6.4896
        26        2.0000           -0.2277424              -6.1972
        27        2.0000           -0.1590159              -4.3270
        28        2.0000           -0.1487113              -4.0466 (HOMO)
        29                         -0.0846594              -2.3037 (LUMO)
        30                         -0.0595869              -1.6214
        31                         -0.0086085              -0.2342
        32                          0.0079020               0.2150
        33                          0.0545204               1.4836
        34                          0.0900528               2.4505
        35                          0.1339598               3.6452
        36                          0.2036802               5.5424
        37                          0.2060261               5.6063
        38                          0.2072620               5.6399
        39                          0.2113515               5.7512
       ...                                ...                  ...
        56                          1.5766396              42.9025
      -------------------------------------------------------------
                  HL-Gap            0.0640519 Eh            1.7429 eV
             Fermi-level           -0.1166854 Eh           -3.1752 eV

     #   Z          covCN         q      C6AA      α(0)
     1   6 C        3.752    -0.063    21.767     6.653
     2   6 C        1.960    -0.095    33.698     9.374
     3   6 C        1.984    -0.039    32.110     9.151
     4   6 C        2.987    -0.043    29.069     8.844
     5   6 C        3.138     0.070    26.221     8.381
     6   7 N        1.981    -0.284    28.177     7.872
     7   7 N        2.973    -0.029    21.807     6.936
     8   6 C        2.981    -0.014    28.366     8.736
     9   6 C        3.019    -0.084    30.089     8.998
    10   6 C        2.899     0.068    26.487     8.438
    11  16 S        1.018    -0.637   168.337    21.944
    12   1 H        0.924     0.012     2.857     2.643
    13   1 H        0.924     0.023     2.687     2.563
    14   1 H        0.924     0.017     2.774     2.605
    15   1 H        0.860     0.126     1.579     1.968
    16   1 H        0.926    -0.011     3.255     2.821
    17   1 H        0.926     0.000     3.053     2.732
    18   1 H        0.925    -0.014     3.319     2.849

 Mol. C6AA /au·bohr⁶  :       5940.904567
 Mol. C8AA /au·bohr⁸  :     165363.006035
 Mol. α(0) /au        :        123.510292


Wiberg/Mayer (AO) data.
largest (>0.10) Wiberg bond orders for each atom

 ---------------------------------------------------------------------------
     #   Z sym  total        # sym  WBO       # sym  WBO       # sym  WBO
 ---------------------------------------------------------------------------
     1   6 C    3.997 --     2 C    1.053    12 H    0.973    13 H    0.972
                            14 H    0.972
     2   6 C    3.965 --     3 C    2.720     1 C    1.053
     3   6 C    3.977 --     2 C    2.720     4 C    1.130
     4   6 C    3.959 --    10 C    1.467     3 C    1.130     5 C    1.126
                            11 S    0.129
     5   6 C    3.971 --     6 N    1.422     9 C    1.248     4 C    1.126
     6   7 N    2.915 --     5 C    1.422     7 N    1.153     8 C    0.155
     7   7 N    3.551 --     8 C    1.242     6 N    1.153    15 H    0.955
                             9 C    0.101
     8   6 C    3.949 --     9 C    1.562     7 N    1.242    16 H    0.968
                             6 N    0.155
     9   6 C    3.974 --     8 C    1.562     5 C    1.248    17 H    0.974
                             7 N    0.101
    10   6 C    3.975 --     4 C    1.467    11 S    1.383    18 H    0.966
    11  16 S    1.688 --    10 C    1.383     4 C    0.129
    12   1 H    0.999 --     1 C    0.973
    13   1 H    0.999 --     1 C    0.972
    14   1 H    0.994 --     1 C    0.972
    15   1 H    0.983 --     7 N    0.955
    16   1 H    0.999 --     8 C    0.968
    17   1 H    1.000 --     9 C    0.974
    18   1 H    0.999 --    10 C    0.966
 ---------------------------------------------------------------------------

Topologies differ in total number of bonds
Writing topology from bond orders to xtbtopo.mol

molecular dipole:
                 x           y           z       tot (Debye)
 q only:        1.222       2.962       3.052
   full:        1.583       3.561       3.663      13.594
molecular quadrupole (traceless):
                xx          xy          yy          xz          yz          zz
 q only:        9.806      -8.466      -4.156      -8.369     -22.005      -5.650
  q+dip:       17.370     -10.402      -8.031     -11.231     -23.578      -9.339
   full:       15.343      -9.248      -6.797      -9.629     -25.085      -8.545

           -------------------------------------------------
          |                Geometry Summary                 |
           -------------------------------------------------

      molecular mass/u    :      163.2196663
   center of mass at/Å    :        0.1172427      -0.5101585      -0.5529579
  moments of inertia/u·Å² :        0.4085084E+03   0.7780499E+03   0.1183385E+04
rotational constants/cm⁻¹ :        0.4126631E-01   0.2166652E-01   0.1424527E-01

 * 16 selected distances

     #   Z          #   Z                                           value/Å
     2   6 C        3   6 C                                       1.2047639
     4   6 C        5   6 C                                       1.4352619
     5   6 C        6   7 N                                       1.3351465
     6   7 N        7   7 N                                       1.3481531
     7   7 N        8   6 C                                       1.3544188
     5   6 C        9   6 C                                       1.4269431
     8   6 C        9   6 C                                       1.3650244
     4   6 C       10   6 C                                       1.3759115
    10   6 C       11  16 S                                       1.6781711 (max)
     1   6 C       12   1 H                                       1.0939338
     1   6 C       13   1 H                                       1.0924392
     1   6 C       14   1 H                                       1.0938298
     7   7 N       15   1 H                                       1.0059265 (min)
     8   6 C       16   1 H                                       1.0748196
     9   6 C       17   1 H                                       1.0715435
    10   6 C       18   1 H                                       1.0879204

 * 6 distinct bonds (by element types)

   Z      Z             #   av. dist./Å        max./Å        min./Å
   1 H    6 C           6     1.0857477     1.0939338     1.0715435
   6 C    6 C           5     1.3615810     1.4352619     1.2047639
   1 H    7 N           1     1.0059265     1.0059265     1.0059265
   6 C    7 N           2     1.3447826     1.3544188     1.3351465
   7 N    7 N           1     1.3481531     1.3481531     1.3481531
   6 C   16 S           1     1.6781711     1.6781711     1.6781711


optimized geometry written to: xtbopt.xyz


           -------------------------------------------------
          | TOTAL ENERGY              -29.925164127778 Eh   |
          | GRADIENT NORM               0.000641064416 Eh/α |
          | HOMO-LUMO GAP               1.742939610884 eV   |
           -------------------------------------------------

------------------------------------------------------------------------
 * finished run on 2022/11/02 at 18:13:36.612     
------------------------------------------------------------------------
 total:
 * wall-time:     0 d,  0 h,  0 min,  0.953 sec
 *  cpu-time:     0 d,  0 h,  0 min,  0.907 sec
 * ratio c/w:     0.952 speedup
 SCF:
 * wall-time:     0 d,  0 h,  0 min,  0.051 sec
 *  cpu-time:     0 d,  0 h,  0 min,  0.045 sec
 * ratio c/w:     0.883 speedup
 ANC optimizer:
 * wall-time:     0 d,  0 h,  0 min,  0.841 sec
 *  cpu-time:     0 d,  0 h,  0 min,  0.834 sec
 * ratio c/w:     0.992 speedup

