name,name_num,pka_calc,tspan_number_ellipse_color_mapping,smiles,pka_exp,ref,group,comment,pka_error
comp435,435,33,"[('#FF0000', 'red', 'most acidic position in a molecule'), ('#FF0000', 'red', 'most acidic position in a molecule')]",c1ccsc1,32.5,65,Heteroaromatics,What are the pKa values of C–H bonds in aromatic heterocyclic compounds in DMSO?,0.5
comp436,436,34,"[('#33C1EA', 'light blue', 'acidic but unfavourable in lithiation (due to electronic repulsion)'), ('#33C1EA', 'light blue', 'acidic but unfavourable in lithiation (due to electronic repulsion)')]",CN(C)n1cccc1,36.4,65,Heteroaromatics,What are the pKa values of C–H bonds in aromatic heterocyclic compounds in DMSO?,2.3999999999999986
comp437,437,32,"[('#FF0000', 'red', 'most acidic position in a molecule')]",Cn1ccnc1,33.1,65,Heteroaromatics,What are the pKa values of C–H bonds in aromatic heterocyclic compounds in DMSO?,1.1000000000000014
comp438,438,35,"[('#FF0000', 'red', 'most acidic position in a molecule'), ('#FF0000', 'red', 'most acidic position in a molecule')]",CCCn1cccn1,35.2,65,Heteroaromatics,What are the pKa values of C–H bonds in aromatic heterocyclic compounds in DMSO?,0.20000000000000284
comp439,439,33,"[('#FF0000', 'red', 'most acidic position in a molecule')]",Cn1ccc2ccccc21,37.3,65,Heteroaromatics,What are the pKa values of C–H bonds in aromatic heterocyclic compounds in DMSO?,4.299999999999997
comp440,440,33,"[('#FF0000', 'red', 'most acidic position in a molecule')]",c1ccc2sccc2c1,32.9,65,Heteroaromatics,What are the pKa values of C–H bonds in aromatic heterocyclic compounds in DMSO?,0.10000000000000142
comp441,441,29,"[('#FF0000', 'red', 'most acidic position in a molecule')]",O=P(OCC)(C[Si](C)(C)C)OCC,28.7,52,Phosphonates; Silanes,,0.3000000000000007
comp442,442,11,"[('#33C1EA', 'light blue', 'acidic but unfavourable in lithiation (due to electronic repulsion)')]",N(=O)(=O)CSc1ccccc1,11.8,10,Sulfides; Nitro,,0.8000000000000007
comp443,443,8,"[('#FF0000', 'red', 'most acidic position in a molecule')]",N#CC1c2ccccc2-c2ccccc21,8.3,1,Fluorenes,,0.3000000000000007
comp444,444,11,"[('#33C1EA', 'light blue', 'acidic but unfavourable in lithiation (due to electronic repulsion)')]",N#CC(N(C)C)C#N,12.2,34,Malononitriles,,1.1999999999999993
comp445,445,28,"[('#FF0000', 'red', 'most acidic position in a molecule')]",C#Cc1ccccc1,28.8,"1, 23",Acetylenes,,0.8000000000000007
comp446,446,12,"[('#FF0000', 'red', 'most acidic position in a molecule')]",CC(=O)N1C(=O)Cc2ccccc21,13.5,51,Amides,,1.5
comp447,447,14,"[('#FF0000', 'red', 'most acidic position in a molecule')]",CCOC(=O)CC(=O)C,14.2,58,Esters,,0.1999999999999993
comp449,449,20,"[('#FF0000', 'red', 'most acidic position in a molecule')]",CC[Si](CC)(CC)C1c2ccccc2-c2ccccc21,21.4,26,Fluorenes; Silanes,,1.3999999999999986
comp450,450,16,"[('#FF0000', 'red', 'most acidic position in a molecule')]",Cc1ccc(S(=O)(=O)N=S(=O)(C(Cl)(Cl))c2ccccc2)cc1,16.9,blank,Halides,,0.8999999999999986
comp451,451,21,"[('#FF0000', 'red', 'most acidic position in a molecule')]",COC(=O)C1SCCCS1,20.8,23,Sulfides,,0.1999999999999993
comp452,452,15,"[('#FF0000', 'red', 'most acidic position in a molecule')]",O=S(=O)(Cc1cccc[n+]1[O-])c1ccccc1,16.7,blank,Sulfones; Pyridyl,,1.6999999999999993
comp453,453,19,"[('#FF0000', 'red', 'most acidic position in a molecule')]",O=S(=O)(Cc1ccc[n+]([O-])c1)c1ccccc1,19.2,blank,Sulfones; Pyridyl,,0.1999999999999993
comp454,454,19,"[('#FF0000', 'red', 'most acidic position in a molecule')]",O=S(=O)(Cc1cc[n+]([O-])cc1)c1ccccc1,18.3,blank,Sulfones; Pyridyl,,0.6999999999999993
comp455,455,26,"[('#FF0000', 'red', 'most acidic position in a molecule')]",CCOP(=O)(Cc1ccccc1)OCC,27.6,blank,Phosphonates,,1.6000000000000014
comp456,456,16,"[('#FF0000', 'red', 'most acidic position in a molecule')]",CCOP(=O)(CC#N)OCC,16.4,blank,Phosphonates; Nitriles,,0.3999999999999986
comp457,457,18,"[('#FF0000', 'red', 'most acidic position in a molecule')]",CCOC(=O)CP(=O)(OCC)OCC,18.6,blank,Phosphonates; Esters,,0.6000000000000014
comp458,458,26,"[('#FF0000', 'red', 'most acidic position in a molecule')]",CCOP(=O)(CCl)OCC,26.2,blank,Phosphonates,,0.1999999999999993
comp459,459,11,"[('#33C1EA', 'light blue', 'acidic but unfavourable in lithiation (due to electronic repulsion)')]",N#CC(N(C)(C))C#N,12.2,34,Malononitriles,oka value was missing in pdf. Found in ref 34,1.1999999999999993