name,name_num,pka_calc,tspan_number_ellipse_color_mapping,smiles,pka_exp,ref,group,comment,pka_error
comp434,434,35,"[('#00FF00', 'light green', 'deprotonation via chelation controlled process is possible'), ('#00FF00', 'light green', 'deprotonation via chelation controlled process is possible')]",c1ccoc1,35.0,65,Heteroaromatics,What are the pKa values of CH bonds in aromatic heterocyclic compounds in DMSO?,0.0
comp435,435,33,"[('#FF0000', 'red', 'most acidic position in a molecule'), ('#FF0000', 'red', 'most acidic position in a molecule')]",c1ccsc1,32.5,65,Heteroaromatics,What are the pKa values of CH bonds in aromatic heterocyclic compounds in DMSO?,0.5
comp436,436,34,"[('#33C1EA', 'light blue', 'acidic but unfavourable in lithiation (due to electronic repulsion)'), ('#33C1EA', 'light blue', 'acidic but unfavourable in lithiation (due to electronic repulsion)')]",CN(C)n1cccc1,36.4,65,Heteroaromatics,What are the pKa values of CH bonds in aromatic heterocyclic compounds in DMSO?,2.3999999999999986
comp437,437,32,"[('#FF0000', 'red', 'most acidic position in a molecule')]",Cn1ccnc1,33.1,65,Heteroaromatics,What are the pKa values of CH bonds in aromatic heterocyclic compounds in DMSO?,1.1000000000000014
comp438,438,35,"[('#FF0000', 'red', 'most acidic position in a molecule'), ('#FF0000', 'red', 'most acidic position in a molecule')]",CCCn1cccn1,35.2,65,Heteroaromatics,What are the pKa values of CH bonds in aromatic heterocyclic compounds in DMSO?,0.20000000000000284
comp439,439,33,"[('#FF0000', 'red', 'most acidic position in a molecule')]",Cn1ccc2ccccc21,37.3,65,Heteroaromatics,What are the pKa values of CH bonds in aromatic heterocyclic compounds in DMSO?,4.299999999999997
comp440,440,33,"[('#FF0000', 'red', 'most acidic position in a molecule')]",c1ccc2sccc2c1,32.9,65,Heteroaromatics,What are the pKa values of CH bonds in aromatic heterocyclic compounds in DMSO?,0.10000000000000142