      -----------------------------------------------------------      
     |                   =====================                   |     
     |                           x T B                           |     
     |                   =====================                   |     
     |                         S. Grimme                         |     
     |          Mulliken Center for Theoretical Chemistry        |     
     |                    University of Bonn                     |     
      -----------------------------------------------------------      

   * xtb version 6.4.1 (afa7bdf) compiled by 'ehlert@majestix' on 2021-06-10

   xtb is free software: you can redistribute it and/or modify it under
   the terms of the GNU Lesser General Public License as published by
   the Free Software Foundation, either version 3 of the License, or
   (at your option) any later version.
   
   xtb is distributed in the hope that it will be useful,
   but WITHOUT ANY WARRANTY; without even the implied warranty of
   MERCHANTABILITY or FITNESS FOR A PARTICULAR PURPOSE.  See the
   GNU Lesser General Public License for more details.
   
   Cite this work as:
   * C. Bannwarth, E. Caldeweyher, S. Ehlert, A. Hansen, P. Pracht,
     J. Seibert, S. Spicher, S. Grimme, WIREs Comput. Mol. Sci., 2020, 11,
     e01493. DOI: 10.1002/wcms.1493
   
   for GFN2-xTB:
   * C. Bannwarth, S. Ehlert and S. Grimme., J. Chem. Theory Comput., 2019,
     15, 1652-1671. DOI: 10.1021/acs.jctc.8b01176
   for GFN1-xTB:
   * S. Grimme, C. Bannwarth, P. Shushkov, J. Chem. Theory Comput., 2017,
     13, 1989-2009. DOI: 10.1021/acs.jctc.7b00118
   for GFN0-xTB:
   * P. Pracht, E. Caldeweyher, S. Ehlert, S. Grimme, ChemRxiv, 2019, preprint.
     DOI: 10.26434/chemrxiv.8326202.v1
   for GFN-FF:
   * S. Spicher and S. Grimme, Angew. Chem. Int. Ed., 2020, 59, 15665-15673.
     DOI: 10.1002/anie.202004239
   
   for DFT-D4:
   * E. Caldeweyher, C. Bannwarth and S. Grimme, J. Chem. Phys., 2017,
     147, 034112. DOI: 10.1063/1.4993215
   * E. Caldeweyher, S. Ehlert, A. Hansen, H. Neugebauer, S. Spicher,
     C. Bannwarth and S. Grimme, J. Chem. Phys., 2019, 150, 154122.
     DOI: 10.1063/1.5090222
   * E. Caldeweyher, J.-M. Mewes, S. Ehlert and S. Grimme, Phys. Chem. Chem. Phys.
     2020, 22, 8499-8512. DOI: 10.1039/D0CP00502A
   
   for sTDA-xTB:
   * S. Grimme and C. Bannwarth, J. Chem. Phys., 2016, 145, 054103.
     DOI: 10.1063/1.4959605
   
   in the mass-spec context:
   * V. Asgeirsson, C. Bauer and S. Grimme, Chem. Sci., 2017, 8, 4879.
     DOI: 10.1039/c7sc00601b
   * J. Koopman and S. Grimme, ACS Omega 2019, 4, 12, 15120-15133.
     DOI: 10.1021/acsomega.9b02011
   
   for metadynamics refer to:
   * S. Grimme, J. Chem. Theory Comput., 2019, 155, 2847-2862
     DOI: 10.1021/acs.jctc.9b00143
   
   for SPH calculations refer to:
   * S. Spicher and S. Grimme, J. Chem. Theory Comput., 2021, 17, 1701-1714
     DOI: 10.1021/acs.jctc.0c01306
   
   with help from (in alphabetical order)
   P. Atkinson, C. Bannwarth, F. Bohle, G. Brandenburg, E. Caldeweyher
   M. Checinski, S. Dohm, S. Ehlert, S. Ehrlich, I. Gerasimov, J. Koopman
   C. Lavigne, S. Lehtola, F. März, M. Müller, F. Musil, H. Neugebauer
   J. Pisarek, C. Plett, P. Pracht, J. Seibert, P. Shushkov, S. Spicher
   M. Stahn, M. Steiner, T. Strunk, J. Stückrath, T. Rose, and J. Unsleber
   
 * started run on 2022/11/02 at 18:13:33.955     

           -------------------------------------------------
          |                Calculation Setup                |
           -------------------------------------------------

          program call               : /lustre/hpc/kemi/borup/pKalculator/dep/xtb-6.4.1/bin/xtb --gfn 2 /lustre/hpc/kemi/borup/pKalculator/calc/test/conf01/test_conf01_gfn2.xyz --opt --lmo --chrg 0 --uhf 0
          hostname                   : fend01.cluster
          coordinate file            : /lustre/hpc/kemi/borup/pKalculator/calc/test/conf01/test_conf01_gfn2.xyz
          omp threads                :                     1
          number of atoms            :                    19
          number of electrons        :                    56
          charge                     :                     0
          spin                       :                   0.0
          first test random number   :      0.22133846013517

   ID    Z sym.   atoms
    1    6 C      1-5, 7, 8, 11
    2   16 S      6
    3    7 N      9, 10
    4    1 H      12-19

           -------------------------------------------------
          |                 G F N 2 - x T B                 |
           -------------------------------------------------

        Reference                      10.1021/acs.jctc.8b01176
      * Hamiltonian:
        H0-scaling (s, p, d)           1.850000    2.230000    2.230000
        zeta-weighting                 0.500000
      * Dispersion:
        s8                             2.700000
        a1                             0.520000
        a2                             5.000000
        s9                             5.000000
      * Repulsion:
        kExp                           1.500000    1.000000
        rExp                           1.000000
      * Coulomb:
        alpha                          2.000000
        third order                    shell-resolved
        anisotropic                    true
        a3                             3.000000
        a5                             4.000000
        cn-shift                       1.200000
        cn-exp                         4.000000
        max-rad                        5.000000


          ...................................................
          :                      SETUP                      :
          :.................................................:
          :  # basis functions                  58          :
          :  # atomic orbitals                  57          :
          :  # shells                           31          :
          :  # electrons                        56          :
          :  max. iterations                   250          :
          :  Hamiltonian                  GFN2-xTB          :
          :  restarted?                      false          :
          :  GBSA solvation                  false          :
          :  PC potential                    false          :
          :  electronic temp.          300.0000000     K    :
          :  accuracy                    1.0000000          :
          :  -> integral cutoff          0.2500000E+02      :
          :  -> integral neglect         0.1000000E-07      :
          :  -> SCF convergence          0.1000000E-05 Eh   :
          :  -> wf. convergence          0.1000000E-03 e    :
          :  Broyden damping             0.4000000          :
          ...................................................

 iter      E             dE          RMSdq      gap      omega  full diag
   1    -30.6383245 -0.306383E+02  0.351E+00    3.40       0.0  T
   2    -30.6919590 -0.536345E-01  0.256E+00    3.37       1.0  T
   3    -30.7116336 -0.196746E-01  0.135E+00    3.47       1.0  T
   4    -30.7130925 -0.145891E-02  0.607E-01    3.45       1.0  T
   5    -30.7172437 -0.415118E-02  0.197E-01    3.44       1.0  T
   6    -30.7175347 -0.291041E-03  0.829E-02    3.45       1.0  T
   7    -30.7175629 -0.282109E-04  0.338E-02    3.45       1.0  T
   8    -30.7175749 -0.119673E-04  0.152E-02    3.45       1.5  T
   9    -30.7175758 -0.923238E-06  0.642E-03    3.45       3.6  T
  10    -30.7175761 -0.231585E-06  0.255E-03    3.45       9.0  T
  11    -30.7175761 -0.190543E-07  0.941E-04    3.45      24.4  T
  12    -30.7175761 -0.177838E-08  0.511E-04    3.45      44.9  T

   *** convergence criteria satisfied after 12 iterations ***

         #    Occupation            Energy/Eh            Energy/eV
      -------------------------------------------------------------
         1        2.0000           -0.7190265             -19.5657
       ...           ...                  ...                  ...
        22        2.0000           -0.4374756             -11.9043
        23        2.0000           -0.4342060             -11.8153
        24        2.0000           -0.4152312             -11.2990
        25        2.0000           -0.4051780             -11.0255
        26        2.0000           -0.3904880             -10.6257
        27        2.0000           -0.3804879             -10.3536
        28        2.0000           -0.3671005              -9.9893 (HOMO)
        29                         -0.2403462              -6.5402 (LUMO)
        30                         -0.2115186              -5.7557
        31                         -0.1920686              -5.2265
        32                         -0.1803873              -4.9086
        33                         -0.1162723              -3.1639
       ...                                ...                  ...
        57                          0.7252271              19.7344
      -------------------------------------------------------------
                  HL-Gap            0.1267543 Eh            3.4492 eV
             Fermi-level           -0.3037234 Eh           -8.2647 eV
 
 localization/xTB-IFF output generation
 averaging CT terms over            1  occ. levels
 averaging CT terms over            1  virt. levels
 dipole moment from electron density (au)
     X       Y       Z   
  -0.8501   0.2610  -0.3934  total (Debye):    2.472
cpu  time for init local    0.00 s
wall time for init local    0.01 s
 doing rotations ...
 initialization of trafo matrix to unity

 converged in     41 iterations, threshold :   0.99261828D-06
 doing transformations ...
 lmo centers(Z=2) and atoms on file <lmocent.coord>
 LMO Fii/eV  ncent    charge center   contributions...
    1 sigma -17.11   1.96  -4.41873   1.54204  -2.19642   10N :  0.56    9N :  0.45
    2 sigma -16.38   1.92  -6.19130   0.79644  -1.51539   10N :  0.58   11C :  0.43
    3 sigma -15.87   1.95  -6.18114   2.14103  -3.04953   10N :  0.58   18H :  0.43
    4 sigma -14.85   1.94   4.30510  -1.16137   1.75353    6S :  0.58    5C :  0.42
    5 sigma -14.85   1.94   2.34435  -2.24262   2.78858    6S :  0.58    7C :  0.42
    6 sigma -14.76   1.97   5.73019   0.38281   0.13651    5C :  0.51    8C :  0.50
    7 sigma -14.48   2.02  -1.22177  -0.28263   0.19741    2C :  0.50    3C :  0.49
    8 sigma -14.48   2.00  -3.60046  -0.63029   0.36420    1C :  0.51    2C :  0.49
    9 sigma -14.43   2.01  -8.02968  -0.32709  -0.40838   11C :  0.51   19H :  0.49
   10 sigma -14.39   2.00   1.10823   0.08338   0.00724    3C :  0.50    4C :  0.50
   11 sigma -14.12   2.00  -0.11957  -2.86294   3.25280    7C :  0.51   14H :  0.49
   12 sigma -13.89   2.01   7.56097  -0.08804  -1.01299    8C :  0.52   16H :  0.48
   13 sigma -13.88   1.98   7.72888   1.09201   0.79809    8C :  0.52   17H :  0.48
   14 sigma -13.85   1.99   6.86674   1.96726  -0.99325    8C :  0.52   15H :  0.48
   15 LP    -13.83   1.18   4.17057  -0.78742   4.98314    6S :  0.92
   16 LP    -13.81   1.18   4.47844  -4.40115   1.79620    6S :  0.92
   17 sigma -13.80   2.01  -4.82864  -1.99473   1.80504    1C :  0.50   12H :  0.49
   18 pi    -13.78   2.16  -2.85647   0.42621  -1.47447    9N :  0.52    2C :  0.44
   19 pi    -13.76   2.16  -2.91521   1.12077  -0.86631    9N :  0.52    2C :  0.44
   20 sigma -13.52   2.02   2.13625   1.50778  -1.51648    4C :  0.51   13H :  0.48
   21 pi    -13.46   2.19  -5.62443  -0.21175   0.45711    1C :  0.49   11C :  0.47
   22 pi    -13.46   2.19  -5.56095  -0.96777  -0.20454    1C :  0.49   11C :  0.47
   23 pi    -13.29   2.17   0.45223  -1.66518   1.16212    7C :  0.48    3C :  0.48
   24 pi    -13.28   2.18   0.38698  -0.89494   1.83482    7C :  0.48    3C :  0.48
   25 pi    -13.26   2.13   3.30144  -0.13644  -0.30536    4C :  0.49    5C :  0.48
   26 pi    -13.25   2.14   3.23200   0.64066   0.37610    4C :  0.49    5C :  0.48
   27 pi    -13.23   1.60  -5.37417   1.26812  -1.97394   10N :  0.78   11C :  0.09    9N :  0.08
   28 LP    -11.69   1.02  -2.09413   2.61790  -3.20092    9N :  0.99
 starting deloc pi regularization ...
 thr    2.20000000000000      # pi deloc LMO           5
 files:
 coordprot.0/xtbscreen.xyz/xtblmoinfo/lmocent.coord
 with protonation site input, xtbdock and
 LMO center info written
 

 SCC (total)                   0 d,  0 h,  0 min,  0.051 sec
 SCC setup                      ...        0 min,  0.000 sec (  0.743%)
 Dispersion                     ...        0 min,  0.000 sec (  0.485%)
 classical contributions        ...        0 min,  0.000 sec (  0.125%)
 integral evaluation            ...        0 min,  0.005 sec (  9.518%)
 iterations                     ...        0 min,  0.016 sec ( 31.108%)
 molecular gradient             ...        0 min,  0.010 sec ( 20.500%)
 printout                       ...        0 min,  0.019 sec ( 37.405%)

         :::::::::::::::::::::::::::::::::::::::::::::::::::::
         ::                     SUMMARY                     ::
         :::::::::::::::::::::::::::::::::::::::::::::::::::::
         :: total energy             -30.272441718391 Eh    ::
         :: gradient norm              0.052858214222 Eh/a0 ::
         :: HOMO-LUMO gap              3.449159713075 eV    ::
         ::.................................................::
         :: SCC energy               -30.717576070861 Eh    ::
         :: -> isotropic ES            0.010341258991 Eh    ::
         :: -> anisotropic ES          0.003896502631 Eh    ::
         :: -> anisotropic XC          0.020617232240 Eh    ::
         :: -> dispersion             -0.017818099852 Eh    ::
         :: repulsion energy           0.445177535931 Eh    ::
         :: add. restraining           0.000000000000 Eh    ::
         :: total charge               0.000000000000 e     ::
         :::::::::::::::::::::::::::::::::::::::::::::::::::::

      ----------------------------------------------------------- 
     |                   =====================                   |
     |                        A N C O P T                        |
     |                   =====================                   |
     |               Approximate Normal Coordinate               |
     |                Rational Function Optimizer                |
      ----------------------------------------------------------- 

          ...................................................
          :                      SETUP                      :
          :.................................................:
          :   optimization level            normal          :
          :   max. optcycles                   200          :
          :   ANC micro-cycles                  20          :
          :   degrees of freedom                51          :
          :.................................................:
          :   RF solver                   davidson          :
          :   write xtbopt.log                true          :
          :   linear?                        false          :
          :   energy convergence         0.5000000E-05 Eh   :
          :   grad. convergence          0.1000000E-02 Eh/α :
          :   maximium RF displ.         1.0000000          :
          :   Hlow (freq-cutoff)         0.1000000E-01      :
          :   Hmax (freq-cutoff)         5.0000000          :
          :   S6 in model hess.         20.0000000          :
          ...................................................

generating ANC from model Hessian ...
Using Lindh-Hessian (1995)
 Shifting diagonal of input Hessian by   8.180145980128293E-003
 Lowest  eigenvalues of input Hessian
    0.000000    0.000000    0.000000    0.000000    0.000000    0.000000
    0.010000    0.011469    0.012833    0.016177    0.018687    0.023858
    0.029866    0.034026    0.041543    0.044960    0.053094    0.062233
 Highest eigenvalues
    1.786744    1.798833    1.911175    1.983101    2.026650    2.112838
 

........................................................................
.............................. CYCLE    1 ..............................
........................................................................
   1    -30.7175761 -0.307176E+02  0.153E-04    3.45       0.0  T
   2    -30.7175761 -0.455564E-10  0.892E-05    3.45     257.1  T
   3    -30.7175761 -0.131450E-12  0.538E-05    3.45     426.4  T
     SCC iter.                  ...        0 min,  0.005 sec
     gradient                   ...        0 min,  0.010 sec
 * total energy  :   -30.2724417 Eh     change       -0.1418133E-08 Eh
   gradient norm :     0.0528612 Eh/α   predicted     0.0000000E+00 (-100.00%)
   displ. norm   :     0.1755982 α      lambda       -0.4806326E-02
   maximum displ.:     0.0789524 α      in ANC's #7, #15, #9, ...

........................................................................
.............................. CYCLE    2 ..............................
........................................................................
   1    -30.7285255 -0.307285E+02  0.209E-01    3.42       0.0  T
   2    -30.7285767 -0.512393E-04  0.122E-01    3.42       1.0  T
   3    -30.7285595  0.172216E-04  0.642E-02    3.42       1.0  T
   4    -30.7285985 -0.389599E-04  0.192E-02    3.42       1.2  T
   5    -30.7286008 -0.238715E-05  0.878E-03    3.42       2.6  T
   6    -30.7286014 -0.549321E-06  0.381E-03    3.42       6.0  T
   7    -30.7286015 -0.968942E-07  0.147E-03    3.42      15.6  T
   8    -30.7286015 -0.132507E-07  0.781E-04    3.42      29.4  T
   9    -30.7286015 -0.205016E-08  0.161E-04    3.42     142.8  T
     SCC iter.                  ...        0 min,  0.011 sec
     gradient                   ...        0 min,  0.010 sec
 * total energy  :   -30.2757536 Eh     change       -0.3311920E-02 Eh
   gradient norm :     0.0208294 Eh/α   predicted    -0.2477391E-02 ( -25.20%)
   displ. norm   :     0.1549756 α      lambda       -0.1432897E-02
   maximum displ.:     0.1029795 α      in ANC's #7, #9, #18, ...

........................................................................
.............................. CYCLE    3 ..............................
........................................................................
   1    -30.7338000 -0.307338E+02  0.144E-01    3.40       0.0  T
   2    -30.7338214 -0.213812E-04  0.837E-02    3.40       1.0  T
   3    -30.7338138  0.760505E-05  0.459E-02    3.40       1.0  T
   4    -30.7338312 -0.174271E-04  0.112E-02    3.40       2.0  T
   5    -30.7338321 -0.878939E-06  0.584E-03    3.40       3.9  T
   6    -30.7338324 -0.353321E-06  0.172E-03    3.40      13.4  T
   7    -30.7338324 -0.137316E-07  0.549E-04    3.40      41.8  T
   8    -30.7338324 -0.268502E-08  0.273E-04    3.40      84.2  T
     SCC iter.                  ...        0 min,  0.010 sec
     gradient                   ...        0 min,  0.010 sec
 * total energy  :   -30.2765539 Eh     change       -0.8002665E-03 Eh
   gradient norm :     0.0072790 Eh/α   predicted    -0.7337163E-03 (  -8.32%)
   displ. norm   :     0.0601118 α      lambda       -0.1299247E-03
   maximum displ.:     0.0471292 α      in ANC's #7, #3, #4, ...

........................................................................
.............................. CYCLE    4 ..............................
........................................................................
   1    -30.7335791 -0.307336E+02  0.401E-02    3.40       0.0  T
   2    -30.7335798 -0.761586E-06  0.232E-02    3.40       1.0  T
   3    -30.7335787  0.111551E-05  0.103E-02    3.40       2.2  T
   4    -30.7335802 -0.143285E-05  0.260E-03    3.40       8.8  T
   5    -30.7335802 -0.605626E-07  0.121E-03    3.40      19.0  T
   6    -30.7335802 -0.644000E-08  0.484E-04    3.40      47.4  T
   7    -30.7335802 -0.190049E-08  0.247E-04    3.40      92.8  T
     SCC iter.                  ...        0 min,  0.009 sec
     gradient                   ...        0 min,  0.010 sec
 * total energy  :   -30.2766472 Eh     change       -0.9326106E-04 Eh
   gradient norm :     0.0044968 Eh/α   predicted    -0.6519908E-04 ( -30.09%)
   displ. norm   :     0.0598377 α      lambda       -0.6756715E-04
   maximum displ.:     0.0396020 α      in ANC's #7, #3, #4, ...

........................................................................
.............................. CYCLE    5 ..............................
........................................................................
   1    -30.7330750 -0.307331E+02  0.335E-02    3.40       0.0  T
   2    -30.7330759 -0.893982E-06  0.187E-02    3.40       1.2  T
   3    -30.7330755  0.413494E-06  0.725E-03    3.40       3.2  T
   4    -30.7330761 -0.591980E-06  0.237E-03    3.40       9.7  T
   5    -30.7330761 -0.557646E-07  0.963E-04    3.40      23.8  T
   6    -30.7330761 -0.491350E-08  0.442E-04    3.40      51.9  T
     SCC iter.                  ...        0 min,  0.008 sec
     gradient                   ...        0 min,  0.010 sec
 * total energy  :   -30.2766863 Eh     change       -0.3908717E-04 Eh
   gradient norm :     0.0016512 Eh/α   predicted    -0.3390913E-04 ( -13.25%)
   displ. norm   :     0.0385641 α      lambda       -0.9167875E-05
   maximum displ.:     0.0273373 α      in ANC's #3, #4, #5, ...

........................................................................
.............................. CYCLE    6 ..............................
........................................................................
   1    -30.7330982 -0.307331E+02  0.155E-02    3.40       0.0  T
   2    -30.7330983 -0.184172E-06  0.849E-03    3.40       2.7  T
   3    -30.7330982  0.995200E-07  0.409E-03    3.40       5.6  T
   4    -30.7330984 -0.136456E-06  0.138E-03    3.40      16.7  T
   5    -30.7330984 -0.169069E-07  0.503E-04    3.40      45.6  T
   6    -30.7330984 -0.215667E-08  0.246E-04    3.40      93.1  T
     SCC iter.                  ...        0 min,  0.008 sec
     gradient                   ...        0 min,  0.010 sec
 * total energy  :   -30.2766955 Eh     change       -0.9237726E-05 Eh
   gradient norm :     0.0011097 Eh/α   predicted    -0.4587980E-05 ( -50.33%)
   displ. norm   :     0.0494260 α      lambda       -0.7986383E-05
   maximum displ.:     0.0317966 α      in ANC's #3, #4, #5, ...

........................................................................
.............................. CYCLE    7 ..............................
........................................................................
   1    -30.7332716 -0.307333E+02  0.166E-02    3.40       0.0  T
   2    -30.7332717 -0.153967E-06  0.982E-03    3.40       2.3  T
   3    -30.7332715  0.240129E-06  0.479E-03    3.40       4.8  T
   4    -30.7332718 -0.295924E-06  0.148E-03    3.40      15.5  T
   5    -30.7332718 -0.209331E-07  0.516E-04    3.40      44.5  T
   6    -30.7332718 -0.176843E-08  0.236E-04    3.40      97.2  T
     SCC iter.                  ...        0 min,  0.008 sec
     gradient                   ...        0 min,  0.010 sec
 * total energy  :   -30.2767041 Eh     change       -0.8638795E-05 Eh
   gradient norm :     0.0011125 Eh/α   predicted    -0.4002398E-05 ( -53.67%)
   displ. norm   :     0.0744165 α      lambda       -0.7936443E-05
   maximum displ.:     0.0433578 α      in ANC's #4, #3, #5, ...

........................................................................
.............................. CYCLE    8 ..............................
........................................................................
   1    -30.7332664 -0.307333E+02  0.227E-02    3.40       0.0  T
   2    -30.7332665 -0.153181E-06  0.134E-02    3.40       1.7  T
   3    -30.7332663  0.255042E-06  0.446E-03    3.40       5.1  T
   4    -30.7332666 -0.289256E-06  0.141E-03    3.40      16.3  T
   5    -30.7332666 -0.191814E-07  0.546E-04    3.40      42.0  T
   6    -30.7332666 -0.197007E-08  0.215E-04    3.40     106.8  T
     SCC iter.                  ...        0 min,  0.008 sec
     gradient                   ...        0 min,  0.010 sec
 * total energy  :   -30.2767129 Eh     change       -0.8725510E-05 Eh
   gradient norm :     0.0014464 Eh/α   predicted    -0.3983299E-05 ( -54.35%)
   displ. norm   :     0.1014833 α      lambda       -0.9460765E-05
   maximum displ.:     0.0614726 α      in ANC's #4, #5, #6, ...

........................................................................
.............................. CYCLE    9 ..............................
........................................................................
   1    -30.7332208 -0.307332E+02  0.298E-02    3.40       0.0  T
   2    -30.7332210 -0.147268E-06  0.174E-02    3.40       1.3  T
   3    -30.7332209  0.112339E-06  0.344E-03    3.40       6.7  T
   4    -30.7332210 -0.139130E-06  0.144E-03    3.40      16.0  T
   5    -30.7332210 -0.104197E-07  0.679E-04    3.40      33.8  T
   6    -30.7332210 -0.461659E-08  0.220E-04    3.40     104.1  T
     SCC iter.                  ...        0 min,  0.008 sec
     gradient                   ...        0 min,  0.010 sec
 * total energy  :   -30.2767227 Eh     change       -0.9820045E-05 Eh
   gradient norm :     0.0016044 Eh/α   predicted    -0.4753819E-05 ( -51.59%)
   displ. norm   :     0.1036160 α      lambda       -0.1027436E-04
   maximum displ.:     0.0672768 α      in ANC's #4, #5, #6, ...

........................................................................
.............................. CYCLE   10 ..............................
........................................................................
   1    -30.7332032 -0.307332E+02  0.305E-02    3.40       0.0  T
   2    -30.7332033 -0.919193E-07  0.180E-02    3.40       1.3  T
   3    -30.7332032  0.679168E-07  0.265E-03    3.40       8.7  T
   4    -30.7332033 -0.842068E-07  0.114E-03    3.40      20.1  T
   5    -30.7332033 -0.906198E-08  0.459E-04    3.40      49.9  T
   6    -30.7332033 -0.128964E-08  0.199E-04    3.40     115.3  T
     SCC iter.                  ...        0 min,  0.008 sec
     gradient                   ...        0 min,  0.010 sec
 * total energy  :   -30.2767337 Eh     change       -0.1101832E-04 Eh
   gradient norm :     0.0015489 Eh/α   predicted    -0.5162906E-05 ( -53.14%)
   displ. norm   :     0.1175277 α      lambda       -0.1480283E-04
   maximum displ.:     0.0710927 α      in ANC's #4, #5, #2, ...

........................................................................
.............................. CYCLE   11 ..............................
........................................................................
   1    -30.7332822 -0.307333E+02  0.326E-02    3.40       0.0  T
   2    -30.7332824 -0.140806E-06  0.192E-02    3.40       1.2  T
   3    -30.7332821  0.316700E-06  0.506E-03    3.40       4.5  T
   4    -30.7332824 -0.336815E-06  0.189E-03    3.40      12.1  T
   5    -30.7332824 -0.325652E-07  0.601E-04    3.40      38.2  T
   6    -30.7332824 -0.181601E-08  0.258E-04    3.40      89.1  T
     SCC iter.                  ...        0 min,  0.008 sec
     gradient                   ...        0 min,  0.010 sec
 * total energy  :   -30.2767494 Eh     change       -0.1567921E-04 Eh
   gradient norm :     0.0015204 Eh/α   predicted    -0.7448452E-05 ( -52.49%)
   displ. norm   :     0.1304829 α      lambda       -0.1276926E-04
   maximum displ.:     0.0791199 α      in ANC's #4, #2, #5, ...

........................................................................
.............................. CYCLE   12 ..............................
........................................................................
   1    -30.7329600 -0.307330E+02  0.346E-02    3.40       0.0  T
   2    -30.7329602 -0.124606E-06  0.206E-02    3.40       1.1  T
   3    -30.7329600  0.204393E-06  0.387E-03    3.40       5.9  T
   4    -30.7329602 -0.232050E-06  0.134E-03    3.40      17.1  T
   5    -30.7329602 -0.152364E-07  0.567E-04    3.40      40.5  T
   6    -30.7329602 -0.209625E-08  0.203E-04    3.40     113.3  T
     SCC iter.                  ...        0 min,  0.008 sec
     gradient                   ...        0 min,  0.010 sec
 * total energy  :   -30.2767628 Eh     change       -0.1338851E-04 Eh
   gradient norm :     0.0019951 Eh/α   predicted    -0.6438033E-05 ( -51.91%)
   displ. norm   :     0.1103875 α      lambda       -0.1911503E-04
   maximum displ.:     0.0611899 α      in ANC's #3, #4, #2, ...

........................................................................
.............................. CYCLE   13 ..............................
........................................................................
   1    -30.7338069 -0.307338E+02  0.305E-02    3.40       0.0  T
   2    -30.7338075 -0.576248E-06  0.178E-02    3.40       1.3  T
   3    -30.7338072  0.325830E-06  0.596E-03    3.40       3.8  T
   4    -30.7338076 -0.384500E-06  0.211E-03    3.40      10.8  T
   5    -30.7338076 -0.541629E-07  0.833E-04    3.40      27.5  T
   6    -30.7338076 -0.378077E-08  0.342E-04    3.40      67.1  T
     SCC iter.                  ...        0 min,  0.008 sec
     gradient                   ...        0 min,  0.010 sec
 * total energy  :   -30.2767702 Eh     change       -0.7418415E-05 Eh
   gradient norm :     0.0023341 Eh/α   predicted    -0.9610409E-05 (  29.55%)
   displ. norm   :     0.1584629 α      lambda       -0.2190569E-04
   maximum displ.:     0.0933080 α      in ANC's #4, #2, #5, ...

........................................................................
.............................. CYCLE   14 ..............................
........................................................................
   1    -30.7326587 -0.307327E+02  0.433E-02    3.40       0.0  T
   2    -30.7326593 -0.576439E-06  0.254E-02    3.40       1.0  T
   3    -30.7326593 -0.422629E-08  0.353E-03    3.40       6.5  T
   4    -30.7326593 -0.373345E-07  0.147E-03    3.40      15.6  T
   5    -30.7326593 -0.132545E-07  0.714E-04    3.40      32.1  T
   6    -30.7326593 -0.360810E-08  0.175E-04    3.40     131.2  T
     SCC iter.                  ...        0 min,  0.008 sec
     gradient                   ...        0 min,  0.010 sec
 * total energy  :   -30.2767768 Eh     change       -0.6602823E-05 Eh
   gradient norm :     0.0021408 Eh/α   predicted    -0.1123159E-04 (  70.10%)
   displ. norm   :     0.0849055 α      lambda       -0.1184956E-04
   maximum displ.:     0.0487061 α      in ANC's #4, #2, #5, ...

........................................................................
.............................. CYCLE   15 ..............................
........................................................................
   1    -30.7334260 -0.307334E+02  0.231E-02    3.40       0.0  T
   2    -30.7334262 -0.179606E-06  0.136E-02    3.40       1.7  T
   3    -30.7334261  0.751890E-07  0.288E-03    3.40       8.0  T
   4    -30.7334262 -0.860115E-07  0.125E-03    3.40      18.3  T
   5    -30.7334262 -0.173444E-07  0.495E-04    3.40      46.3  T
   6    -30.7334262 -0.113509E-08  0.213E-04    3.40     107.7  T
     SCC iter.                  ...        0 min,  0.008 sec
     gradient                   ...        0 min,  0.010 sec
 * total energy  :   -30.2767806 Eh     change       -0.3856422E-05 Eh
   gradient norm :     0.0006912 Eh/α   predicted    -0.5968058E-05 (  54.76%)
   displ. norm   :     0.0372393 α      lambda       -0.1756343E-05
   maximum displ.:     0.0223464 α      in ANC's #4, #2, #5, ...

   *** GEOMETRY OPTIMIZATION CONVERGED AFTER 15 ITERATIONS ***

------------------------------------------------------------------------
 total energy gain   :        -0.0043389 Eh       -2.7227 kcal/mol
 total RMSD          :         0.2030433 a0        0.1074 Å
 total power (kW/mol):        -0.7594558 (step)  -31.7697 (real)
------------------------------------------------------------------------

 ANCopt (total)                0 d,  0 h,  0 min,  0.359 sec
 optimizer setup                ...        0 min,  0.001 sec (  0.265%)
 model hessian                  ...        0 min,  0.003 sec (  0.921%)
 ANC generation                 ...        0 min,  0.001 sec (  0.215%)
 coordinate transformation      ...        0 min,  0.000 sec (  0.074%)
 single point calculation       ...        0 min,  0.347 sec ( 96.724%)
 optimization log               ...        0 min,  0.003 sec (  0.877%)
 hessian update                 ...        0 min,  0.000 sec (  0.073%)
 rational function              ...        0 min,  0.002 sec (  0.490%)

================
 final structure:
================
19
 xtb: 6.4.1 (afa7bdf)
C        -2.52845770503643   -0.60762972192846    0.43964520823686
C        -1.34576817325250   -0.03581664401578   -0.08585649165493
C         0.02235575356029   -0.28241288774814    0.31147997239013
C         1.13890514391441    0.36793034285184   -0.28907536964748
C         2.33107670799819   -0.00902433038823    0.23078219176978
S         2.11332811892372   -1.19059667590493    1.49043607369757
C         0.40810837316690   -1.15147435734547    1.28963636810744
C         3.69659238694299    0.44677811319298   -0.14161806597875
N        -1.64381539010915    0.81704754232968   -1.05932593625932
N        -2.96727138437167    0.80271999048507   -1.16522497720727
C        -3.54541381284438   -0.04045943497344   -0.28303393651856
H        -2.61015656072616   -1.32514141706976    1.22888440280611
H         1.02246834925878    1.08709632950276   -1.07867718707971
H        -0.20279671124973   -1.77639539650614    1.90947205426948
H         3.63345278598878    1.22154062836045   -0.90167663892037
H         4.28510007040880   -0.38251920614011   -0.53395466023017
H         4.22014817543121    0.84514235365100    0.72676532112103
H        -3.42007913596773    1.38397717168659   -1.85251036170525
H        -4.60777999203630   -0.17076240003991   -0.23614696719657
 
 Bond Distances (Angstroems)
 ---------------------------
C1-C2=1.4149         C1-C11=1.3705        C1-H12=1.0698        C2-C1=1.4149         C2-C3=1.4458         C2-N9=1.3281         
C3-C2=1.4458         C3-C4=1.4249         C3-C7=1.3641         C4-C3=1.4249         C4-C5=1.3541         C4-H13=1.0744        
C5-C4=1.3541         C5-S6=1.7408         C5-C8=1.4870         S6-C5=1.7408         S6-C7=1.7174         C7-C3=1.3641         
C7-S6=1.7174         C7-H14=1.0714        C8-C5=1.4870         C8-H15=1.0872        C8-H16=1.0900        C8-H17=1.0894        
N9-C2=1.3281         N9-N10=1.3278        N10-N9=1.3278        N10-C11=1.3504       N10-H18=1.0076       C11-C1=1.3705        
C11-N10=1.3504       C11-H19=1.0714       H12-C1=1.0698        H13-C4=1.0744        H14-C7=1.0714        H15-C8=1.0872        
H16-C8=1.0900        H17-C8=1.0894        H18-N10=1.0076       H19-C11=1.0714       
 C  H  Rav=1.0791 sigma=0.0086  Rmin=1.0698  Rmax=1.0900     7
 C  C  Rav=1.4088 sigma=0.0451  Rmin=1.3541  Rmax=1.4870     7
 N  H  Rav=1.0076 sigma=0.0000  Rmin=1.0076  Rmax=1.0076     1
 N  C  Rav=1.3392 sigma=0.0111  Rmin=1.3281  Rmax=1.3504     2
 N  N  Rav=1.3278 sigma=0.0000  Rmin=1.3278  Rmax=1.3278     1
 S  C  Rav=1.7291 sigma=0.0117  Rmin=1.7174  Rmax=1.7408     2
 
 selected bond angles (degree)
 --------------------
C11-C1-C2=104.90               H12-C1-C2=127.51               H12-C1-C11=127.59              C3-C2-C1=128.31                
N9-C2-C1=110.13                N9-C2-C3=121.55                C4-C3-C2=123.22                C7-C3-C2=124.98                
C7-C3-C4=111.80                C5-C4-C3=113.64                H13-C4-C3=122.03               H13-C4-C5=124.33               
S6-C5-C4=110.89                C8-C5-C4=128.83                C8-C5-S6=120.28                C7-S6-C5= 91.38                
S6-C7-C3=112.28                H14-C7-C3=128.70               H14-C7-S6=119.03               H15-C8-C5=109.89               
H16-C8-C5=110.66               H16-C8-H15=108.78              H17-C8-C5=110.72               H17-C8-H15=108.94              
H17-C8-H16=107.80              N10-N9-C2=105.98               C11-N10-N9=112.42              H18-N10-N9=119.74              
H18-N10-C11=127.84             
 
 selected dihedral angles (degree)
 ---------------------------------
C3-C2-C1-C11=180.07           C3-C2-C1-H12=  0.11           N9-C2-C1-C11=  0.00           N9-C2-C1-H12=180.04           
C4-C3-C2-C1=180.58            C4-C3-C2-N9=  0.65            C7-C3-C2-C1=  0.65            C7-C3-C2-N9=180.73            
C5-C4-C3-C2=180.07            C5-C4-C3-C7=  0.00            H13-C4-C3-C2=  0.10           H13-C4-C3-C7=180.04           
S6-C5-C4-C3=  0.00            S6-C5-C4-H13=179.98           C8-C5-C4-C3=179.80            C8-C5-C4-H13=359.77           
C7-S6-C5-C4=359.98            C7-S6-C5-C8=180.17            S6-C7-C3-C2=179.91            S6-C7-C3-C4=359.97            
H14-C7-C3-C2=359.95           H14-C7-C3-C4=180.02           C3-C7-S6-C5=  0.03            H14-C7-S6-C5=179.99           
H15-C8-C5-C4=  3.43           H15-C8-C5-S6=183.20           H16-C8-C5-C4=243.28           H16-C8-C5-S6= 63.05           
H17-C8-C5-C4=123.82           H17-C8-C5-S6=303.59           N10-N9-C2-C1=  0.00           N10-N9-C2-C3=179.93           
C11-N10-N9-C2=  0.00          H18-N10-N9-C2=180.04          
           -------------------------------------------------
          |                Final Singlepoint                |
           -------------------------------------------------

          ...................................................
          :                      SETUP                      :
          :.................................................:
          :  # basis functions                  58          :
          :  # atomic orbitals                  57          :
          :  # shells                           31          :
          :  # electrons                        56          :
          :  max. iterations                   250          :
          :  Hamiltonian                  GFN2-xTB          :
          :  restarted?                      false          :
          :  GBSA solvation                  false          :
          :  PC potential                    false          :
          :  electronic temp.          300.0000000     K    :
          :  accuracy                    1.0000000          :
          :  -> integral cutoff          0.2500000E+02      :
          :  -> integral neglect         0.1000000E-07      :
          :  -> SCF convergence          0.1000000E-05 Eh   :
          :  -> wf. convergence          0.1000000E-03 e    :
          :  Broyden damping             0.4000000          :
          ...................................................

 iter      E             dE          RMSdq      gap      omega  full diag
   1    -30.7334262 -0.307334E+02  0.755E-05    3.40       0.0  T
   2    -30.7334262 -0.938982E-11  0.487E-05    3.40     471.5  T
   3    -30.7334262 -0.248193E-10  0.287E-05    3.40     799.0  T

   *** convergence criteria satisfied after 3 iterations ***

         #    Occupation            Energy/Eh            Energy/eV
      -------------------------------------------------------------
         1        2.0000           -0.7196260             -19.5820
       ...           ...                  ...                  ...
        22        2.0000           -0.4393294             -11.9548
        23        2.0000           -0.4355923             -11.8531
        24        2.0000           -0.4177086             -11.3664
        25        2.0000           -0.4024406             -10.9510
        26        2.0000           -0.3888303             -10.5806
        27        2.0000           -0.3818148             -10.3897
        28        2.0000           -0.3661238              -9.9627 (HOMO)
        29                         -0.2411931              -6.5632 (LUMO)
        30                         -0.2102724              -5.7218
        31                         -0.1930290              -5.2526
        32                         -0.1809901              -4.9250
        33                         -0.1080540              -2.9403
       ...                                ...                  ...
        57                          0.7382276              20.0882
      -------------------------------------------------------------
                  HL-Gap            0.1249307 Eh            3.3995 eV
             Fermi-level           -0.3036585 Eh           -8.2630 eV
 
 localization/xTB-IFF output generation
 averaging CT terms over            1  occ. levels
 averaging CT terms over            1  virt. levels
 dipole moment from electron density (au)
     X       Y       Z   
  -0.8545   0.2824  -0.3892  total (Debye):    2.492
cpu  time for init local    0.00 s
wall time for init local    0.00 s
 doing rotations ...
 initialization of trafo matrix to unity
iteration     50  convergence  0.25952183D-04

 converged in     65 iterations, threshold :   0.99968771D-06
 doing transformations ...
 lmo centers(Z=2) and atoms on file <lmocent.coord>
 LMO Fii/eV  ncent    charge center   contributions...
    1 sigma -17.08   1.96  -4.41509   1.54843  -2.12685   10N :  0.56    9N :  0.45
    2 sigma -16.55   1.92  -6.17885   0.82315  -1.48444   10N :  0.58   11C :  0.43
    3 sigma -15.99   1.95  -6.13598   2.17935  -2.98623   10N :  0.58   18H :  0.42
    4 sigma -14.88   1.93   2.40289  -2.27014   2.69132    6S :  0.59    7C :  0.42
    5 sigma -14.83   1.94   4.29142  -1.16079   1.66468    6S :  0.59    5C :  0.41
    6 sigma -14.68   1.97   5.69216   0.40641   0.09325    5C :  0.51    8C :  0.50
    7 sigma -14.59   2.02  -1.24606  -0.31122   0.22613    2C :  0.50    3C :  0.50
    8 sigma -14.50   2.00  -3.61340  -0.67803   0.41650    1C :  0.51    2C :  0.49
    9 sigma -14.47   2.01  -8.02608  -0.23815  -0.47741   11C :  0.51   19H :  0.49
   10 sigma -14.46   2.00   1.05208   0.10941  -0.01395    3C :  0.50    4C :  0.50
   11 sigma -14.10   2.01   0.01648  -2.95474   3.21024    7C :  0.51   14H :  0.49
   12 LP    -13.87   1.19   4.19893  -0.85827   4.87807    6S :  0.92
   13 sigma -13.86   2.00   7.66674  -0.18547  -0.74264    8C :  0.52   16H :  0.48
   14 sigma -13.85   2.00   7.59126   1.32555   0.80729    8C :  0.52   17H :  0.48
   15 sigma -13.84   1.98   6.89088   1.79375  -1.19934    8C :  0.52   15H :  0.48
   16 LP    -13.84   1.19   4.49256  -4.37818   1.61699    6S :  0.92
   17 sigma -13.80   2.01  -4.87565  -2.04707   1.81978    1C :  0.51   12H :  0.49
   18 pi    -13.80   2.14  -2.86049   0.41101  -1.41212    9N :  0.52    2C :  0.44
   19 pi    -13.77   2.15  -2.91758   1.09484  -0.79690    9N :  0.52    2C :  0.44
   20 sigma -13.53   2.02   2.02349   1.57635  -1.51200    4C :  0.52   13H :  0.48
   21 delpi -13.42   2.21  -5.54642  -0.97499  -0.18282    1C :  0.49   11C :  0.46
   22 delpi -13.42   2.21  -5.60854  -0.23120   0.48763    1C :  0.49   11C :  0.46
   23 pi    -13.33   1.61  -5.40504   1.26698  -1.90677   10N :  0.78   11C :  0.10    9N :  0.08
   24 pi    -13.29   2.19   0.39531  -0.91656   1.79234    7C :  0.48    3C :  0.48
   25 pi    -13.28   2.19   0.45899  -1.66645   1.09957    7C :  0.48    3C :  0.48
   26 pi    -13.26   2.14   3.16716   0.67531   0.33849    4C :  0.49    5C :  0.48
   27 pi    -13.26   2.14   3.23215  -0.08737  -0.36557    4C :  0.49    5C :  0.48
   28 LP    -11.62   1.02  -2.03762   2.61349  -3.09009    9N :  0.99
 starting deloc pi regularization ...
 thr    2.20000000000000      # pi deloc LMO           5
 files:
 coordprot.0/xtbscreen.xyz/xtblmoinfo/lmocent.coord
 with protonation site input, xtbdock and
 LMO center info written
 

 SCC (total)                   0 d,  0 h,  0 min,  0.035 sec
 SCC setup                      ...        0 min,  0.000 sec (  0.473%)
 Dispersion                     ...        0 min,  0.000 sec (  0.359%)
 classical contributions        ...        0 min,  0.000 sec (  0.115%)
 integral evaluation            ...        0 min,  0.005 sec ( 13.189%)
 iterations                     ...        0 min,  0.004 sec ( 12.527%)
 molecular gradient             ...        0 min,  0.010 sec ( 28.602%)
 printout                       ...        0 min,  0.016 sec ( 44.600%)

         :::::::::::::::::::::::::::::::::::::::::::::::::::::
         ::                     SUMMARY                     ::
         :::::::::::::::::::::::::::::::::::::::::::::::::::::
         :: total energy             -30.276780640305 Eh    ::
         :: gradient norm              0.000690414389 Eh/a0 ::
         :: HOMO-LUMO gap              3.399538278985 eV    ::
         ::.................................................::
         :: SCC energy               -30.733426202173 Eh    ::
         :: -> isotropic ES            0.011031486664 Eh    ::
         :: -> anisotropic ES          0.003278515878 Eh    ::
         :: -> anisotropic XC          0.020628808655 Eh    ::
         :: -> dispersion             -0.017875324812 Eh    ::
         :: repulsion energy           0.456689642401 Eh    ::
         :: add. restraining           0.000000000000 Eh    ::
         :: total charge              -0.000000000000 e     ::
         :::::::::::::::::::::::::::::::::::::::::::::::::::::

           -------------------------------------------------
          |                Property Printout                |
           -------------------------------------------------

    * Orbital Energies and Occupations

         #    Occupation            Energy/Eh            Energy/eV
      -------------------------------------------------------------
         1        2.0000           -0.7196260             -19.5820
       ...           ...                  ...                  ...
        16        2.0000           -0.4916421             -13.3783
        17        2.0000           -0.4789841             -13.0338
        18        2.0000           -0.4756037             -12.9418
        19        2.0000           -0.4658058             -12.6752
        20        2.0000           -0.4587569             -12.4834
        21        2.0000           -0.4525521             -12.3146
        22        2.0000           -0.4393294             -11.9548
        23        2.0000           -0.4355923             -11.8531
        24        2.0000           -0.4177086             -11.3664
        25        2.0000           -0.4024406             -10.9510
        26        2.0000           -0.3888303             -10.5806
        27        2.0000           -0.3818148             -10.3897
        28        2.0000           -0.3661238              -9.9627 (HOMO)
        29                         -0.2411931              -6.5632 (LUMO)
        30                         -0.2102724              -5.7218
        31                         -0.1930290              -5.2526
        32                         -0.1809901              -4.9250
        33                         -0.1080540              -2.9403
        34                         -0.0997276              -2.7137
        35                          0.0031617               0.0860
        36                          0.0198007               0.5388
        37                          0.0343162               0.9338
        38                          0.0449113               1.2221
        39                          0.1007951               2.7428
       ...                                ...                  ...
        57                          0.7382276              20.0882
      -------------------------------------------------------------
                  HL-Gap            0.1249307 Eh            3.3995 eV
             Fermi-level           -0.3036585 Eh           -8.2630 eV

     #   Z          covCN         q      C6AA      α(0)
     1   6 C        3.025    -0.075    29.839     8.960
     2   6 C        3.164     0.067    26.172     8.361
     3   6 C        3.159    -0.006    27.850     8.628
     4   6 C        3.122    -0.060    29.295     8.864
     5   6 C        2.979     0.027    27.388     8.584
     6  16 S        2.326    -0.057   143.405    20.155
     7   6 C        2.941    -0.029    28.726     8.790
     8   6 C        3.776    -0.107    22.572     6.769
     9   7 N        1.998    -0.227    26.756     7.672
    10   7 N        2.998     0.009    21.097     6.822
    11   6 C        3.007    -0.006    28.160     8.705
    12   1 H        0.927     0.025     2.652     2.546
    13   1 H        0.926     0.050     2.324     2.384
    14   1 H        0.926     0.039     2.467     2.456
    15   1 H        0.925     0.050     2.316     2.380
    16   1 H        0.925     0.053     2.281     2.362
    17   1 H        0.925     0.053     2.282     2.362
    18   1 H        0.860     0.160     1.332     1.808
    19   1 H        0.926     0.033     2.549     2.497

 Mol. C6AA /au·bohr⁶  :       5711.992665
 Mol. C8AA /au·bohr⁸  :     157108.929522
 Mol. α(0) /au        :        121.105653


Wiberg/Mayer (AO) data.
largest (>0.10) Wiberg bond orders for each atom

 ---------------------------------------------------------------------------
     #   Z sym  total        # sym  WBO       # sym  WBO       # sym  WBO
 ---------------------------------------------------------------------------
     1   6 C    3.980 --    11 C    1.539     2 C    1.299    12 H    0.974
     2   6 C    3.977 --     9 N    1.454     1 C    1.299     3 C    1.077
     3   6 C    3.987 --     7 C    1.560     4 C    1.210     2 C    1.077
     4   6 C    3.985 --     5 C    1.638     3 C    1.210    13 H    0.962
     5   6 C    3.951 --     4 C    1.638     6 S    1.138     8 C    1.037
                             7 C    0.104
     6  16 S    2.589 --     7 C    1.187     5 C    1.138
     7   6 C    3.943 --     3 C    1.560     6 S    1.187    14 H    0.970
                             5 C    0.104
     8   6 C    3.995 --     5 C    1.037    15 H    0.980    17 H    0.972
                            16 H    0.970
     9   7 N    2.965 --     2 C    1.454    10 N    1.216    11 C    0.160
    10   7 N    3.621 --    11 C    1.270     9 N    1.216    18 H    0.944
    11   6 C    3.958 --     1 C    1.539    10 N    1.270    19 H    0.969
                             9 N    0.160
    12   1 H    0.999 --     1 C    0.974
    13   1 H    0.998 --     4 C    0.962
    14   1 H    0.998 --     7 C    0.970
    15   1 H    0.997 --     8 C    0.980
    16   1 H    0.997 --     8 C    0.970
    17   1 H    0.997 --     8 C    0.972
    18   1 H    0.974 --    10 N    0.944
    19   1 H    0.998 --    11 C    0.969
 ---------------------------------------------------------------------------

Topologies differ in total number of bonds
Writing topology from bond orders to xtbtopo.mol

molecular dipole:
                 x           y           z       tot (Debye)
 q only:       -0.287       0.287      -0.341
   full:       -0.855       0.282      -0.389       2.492
molecular quadrupole (traceless):
                xx          xy          yy          xz          yz          zz
 q only:        8.489      -0.675      -4.522       2.109      -1.537      -3.966
  q+dip:       11.832       0.135      -6.272       1.809      -2.884      -5.560
   full:       11.285       0.288      -5.814       1.413      -1.202      -5.471

           -------------------------------------------------
          |                Geometry Summary                 |
           -------------------------------------------------

      molecular mass/u    :      164.2276070
   center of mass at/Å    :        0.0465620      -0.1848536       0.2043963
  moments of inertia/u·Å² :        0.1790427E+03   0.9450451E+03   0.1120954E+04
rotational constants/cm⁻¹ :        0.9415424E-01   0.1783791E-01   0.1503865E-01

 * 20 selected distances

     #   Z          #   Z                                           value/Å
     1   6 C        2   6 C                                       1.4148769
     2   6 C        3   6 C                                       1.4458385
     3   6 C        4   6 C                                       1.4248844
     4   6 C        5   6 C                                       1.3541122
     5   6 C        6  16 S                                       1.7407629 (max)
     3   6 C        7   6 C                                       1.3641345
     6  16 S        7   6 C                                       1.7174474
     5   6 C        8   6 C                                       1.4869670
     2   6 C        9   7 N                                       1.3281010
     9   7 N       10   7 N                                       1.3277634
     1   6 C       11   6 C                                       1.3704550
    10   7 N       11   6 C                                       1.3503560
     1   6 C       12   1 H                                       1.0697646
     4   6 C       13   1 H                                       1.0743502
     7   6 C       14   1 H                                       1.0714138
     8   6 C       15   1 H                                       1.0871672
     8   6 C       16   1 H                                       1.0899557
     8   6 C       17   1 H                                       1.0894468
    10   7 N       18   1 H                                       1.0075991 (min)
    11   6 C       19   1 H                                       1.0713539

 * 6 distinct bonds (by element types)

   Z      Z             #   av. dist./Å        max./Å        min./Å
   1 H    6 C           7     1.0790646     1.0899557     1.0697646
   6 C    6 C           7     1.4087527     1.4869670     1.3541122
   1 H    7 N           1     1.0075991     1.0075991     1.0075991
   6 C    7 N           2     1.3392285     1.3503560     1.3281010
   7 N    7 N           1     1.3277634     1.3277634     1.3277634
   6 C   16 S           2     1.7291051     1.7407629     1.7174474


optimized geometry written to: xtbopt.xyz


           -------------------------------------------------
          | TOTAL ENERGY              -30.276780640305 Eh   |
          | GRADIENT NORM               0.000690414389 Eh/α |
          | HOMO-LUMO GAP               3.399538278985 eV   |
           -------------------------------------------------

------------------------------------------------------------------------
 * finished run on 2022/11/02 at 18:13:34.468     
------------------------------------------------------------------------
 total:
 * wall-time:     0 d,  0 h,  0 min,  0.513 sec
 *  cpu-time:     0 d,  0 h,  0 min,  0.473 sec
 * ratio c/w:     0.922 speedup
 SCF:
 * wall-time:     0 d,  0 h,  0 min,  0.051 sec
 *  cpu-time:     0 d,  0 h,  0 min,  0.045 sec
 * ratio c/w:     0.882 speedup
 ANC optimizer:
 * wall-time:     0 d,  0 h,  0 min,  0.398 sec
 *  cpu-time:     0 d,  0 h,  0 min,  0.391 sec
 * ratio c/w:     0.984 speedup

