      -----------------------------------------------------------      
     |                   =====================                   |     
     |                           x T B                           |     
     |                   =====================                   |     
     |                         S. Grimme                         |     
     |          Mulliken Center for Theoretical Chemistry        |     
     |                    University of Bonn                     |     
      -----------------------------------------------------------      

   * xtb version 6.4.1 (afa7bdf) compiled by 'ehlert@majestix' on 2021-06-10

   xtb is free software: you can redistribute it and/or modify it under
   the terms of the GNU Lesser General Public License as published by
   the Free Software Foundation, either version 3 of the License, or
   (at your option) any later version.
   
   xtb is distributed in the hope that it will be useful,
   but WITHOUT ANY WARRANTY; without even the implied warranty of
   MERCHANTABILITY or FITNESS FOR A PARTICULAR PURPOSE.  See the
   GNU Lesser General Public License for more details.
   
   Cite this work as:
   * C. Bannwarth, E. Caldeweyher, S. Ehlert, A. Hansen, P. Pracht,
     J. Seibert, S. Spicher, S. Grimme, WIREs Comput. Mol. Sci., 2020, 11,
     e01493. DOI: 10.1002/wcms.1493
   
   for GFN2-xTB:
   * C. Bannwarth, S. Ehlert and S. Grimme., J. Chem. Theory Comput., 2019,
     15, 1652-1671. DOI: 10.1021/acs.jctc.8b01176
   for GFN1-xTB:
   * S. Grimme, C. Bannwarth, P. Shushkov, J. Chem. Theory Comput., 2017,
     13, 1989-2009. DOI: 10.1021/acs.jctc.7b00118
   for GFN0-xTB:
   * P. Pracht, E. Caldeweyher, S. Ehlert, S. Grimme, ChemRxiv, 2019, preprint.
     DOI: 10.26434/chemrxiv.8326202.v1
   for GFN-FF:
   * S. Spicher and S. Grimme, Angew. Chem. Int. Ed., 2020, 59, 15665-15673.
     DOI: 10.1002/anie.202004239
   
   for DFT-D4:
   * E. Caldeweyher, C. Bannwarth and S. Grimme, J. Chem. Phys., 2017,
     147, 034112. DOI: 10.1063/1.4993215
   * E. Caldeweyher, S. Ehlert, A. Hansen, H. Neugebauer, S. Spicher,
     C. Bannwarth and S. Grimme, J. Chem. Phys., 2019, 150, 154122.
     DOI: 10.1063/1.5090222
   * E. Caldeweyher, J.-M. Mewes, S. Ehlert and S. Grimme, Phys. Chem. Chem. Phys.
     2020, 22, 8499-8512. DOI: 10.1039/D0CP00502A
   
   for sTDA-xTB:
   * S. Grimme and C. Bannwarth, J. Chem. Phys., 2016, 145, 054103.
     DOI: 10.1063/1.4959605
   
   in the mass-spec context:
   * V. Asgeirsson, C. Bauer and S. Grimme, Chem. Sci., 2017, 8, 4879.
     DOI: 10.1039/c7sc00601b
   * J. Koopman and S. Grimme, ACS Omega 2019, 4, 12, 15120-15133.
     DOI: 10.1021/acsomega.9b02011
   
   for metadynamics refer to:
   * S. Grimme, J. Chem. Theory Comput., 2019, 155, 2847-2862
     DOI: 10.1021/acs.jctc.9b00143
   
   for SPH calculations refer to:
   * S. Spicher and S. Grimme, J. Chem. Theory Comput., 2021, 17, 1701-1714
     DOI: 10.1021/acs.jctc.0c01306
   
   with help from (in alphabetical order)
   P. Atkinson, C. Bannwarth, F. Bohle, G. Brandenburg, E. Caldeweyher
   M. Checinski, S. Dohm, S. Ehlert, S. Ehrlich, I. Gerasimov, J. Koopman
   C. Lavigne, S. Lehtola, F. März, M. Müller, F. Musil, H. Neugebauer
   J. Pisarek, C. Plett, P. Pracht, J. Seibert, P. Shushkov, S. Spicher
   M. Stahn, M. Steiner, T. Strunk, J. Stückrath, T. Rose, and J. Unsleber
   
 * started run on 2022/11/04 at 10:55:59.202     

           -------------------------------------------------
          |                Calculation Setup                |
           -------------------------------------------------

          program call               : /lustre/hpc/kemi/borup/pKalculator/dep/xtb-6.4.1/bin/xtb --gfn 2 /lustre/hpc/kemi/borup/pKalculator/calc/furan#-1=3/conf01/furan#-1=3_conf01_gfn2.xyz --opt --lmo --chrg -1 --uhf 0 --alpb DMSO
          hostname                   : fend01.cluster
          coordinate file            : /lustre/hpc/kemi/borup/pKalculator/calc/furan#-1=3/conf01/furan#-1=3_conf01_gfn2.xyz
          omp threads                :                     1
          number of atoms            :                     8
          number of electrons        :                    26
          charge                     :                    -1
          spin                       :                   0.0
          first test random number   :      0.96267102697260

   ID    Z sym.   atoms
    1    6 C      1, 2, 4, 5
    2    8 O      3
    3    1 H      6-8

           -------------------------------------------------
          |                 G F N 2 - x T B                 |
           -------------------------------------------------

        Reference                      10.1021/acs.jctc.8b01176
      * Hamiltonian:
        H0-scaling (s, p, d)           1.850000    2.230000    2.230000
        zeta-weighting                 0.500000
      * Dispersion:
        s8                             2.700000
        a1                             0.520000
        a2                             5.000000
        s9                             5.000000
      * Repulsion:
        kExp                           1.500000    1.000000
        rExp                           1.000000
      * Coulomb:
        alpha                          2.000000
        third order                    shell-resolved
        anisotropic                    true
        a3                             3.000000
        a5                             4.000000
        cn-shift                       1.200000
        cn-exp                         4.000000
        max-rad                        5.000000

      * Solvation model:               ALPB
        Solvent                        DMSO
        Parameter file                 internal GFN2-xTB/ALPB
        Dielectric constant                4.6680E+01
        Reference state                gsolv [1 M gas/solution]
        Free energy shift                  7.1947E-03 Eh       4.5147E+00 kcal/mol
        Temperature                        2.9815E+02 K
        Density                            1.1000E+00 kg/L
        Solvent mass                       7.8130E+01 g/mol
        Interaction kernel             P16
        Born radius scaling (c1)           1.7927E+00
        Born radii integrator          GBOBC
        Born offset                        0.0000E+00 a0       0.0000E+00 AA
        H-bond correction              true
        Ion screening                  false
        Surface tension                    1.0000E-05 Eh       1.5569E+01 dyn/cm
        Grid points                               230 per atom

          ...................................................
          :                      SETUP                      :
          :.................................................:
          :  # basis functions                  23          :
          :  # atomic orbitals                  23          :
          :  # shells                           13          :
          :  # electrons                        26          :
          :  max. iterations                   250          :
          :  Hamiltonian                  GFN2-xTB          :
          :  restarted?                      false          :
          :  GBSA solvation                   true          :
          :  PC potential                    false          :
          :  electronic temp.          300.0000000     K    :
          :  accuracy                    1.0000000          :
          :  -> integral cutoff          0.2500000E+02      :
          :  -> integral neglect         0.1000000E-07      :
          :  -> SCF convergence          0.1000000E-05 Eh   :
          :  -> wf. convergence          0.1000000E-03 e    :
          :  Broyden damping             0.4000000          :
          ...................................................

 iter      E             dE          RMSdq      gap      omega  full diag
   1    -14.4218908 -0.144219E+02  0.538E+00    3.49       0.0  T
   2    -14.4707896 -0.488987E-01  0.391E+00    1.39       1.0  T
   3    -14.4797440 -0.895446E-02  0.196E+00    2.12       1.0  T
   4    -14.4806345 -0.890483E-03  0.664E-01    2.02       1.0  T
   5    -14.4827447 -0.211016E-02  0.133E-01    2.03       1.0  T
   6    -14.4827691 -0.244443E-04  0.816E-02    2.02       1.0  T
   7    -14.4827736 -0.445407E-05  0.308E-02    2.01       1.1  T
   8    -14.4827770 -0.348096E-05  0.886E-03    2.02       4.0  T
   9    -14.4827771 -0.705930E-07  0.313E-03    2.02      11.3  T
  10    -14.4827771 -0.199618E-07  0.131E-03    2.02      26.9  T
  11    -14.4827771 -0.340743E-08  0.312E-04    2.02     113.2  T
  12    -14.4827771 -0.545697E-10  0.311E-04    2.02     113.5  T

   *** convergence criteria satisfied after 12 iterations ***

         #    Occupation            Energy/Eh            Energy/eV
      -------------------------------------------------------------
         1        2.0000           -0.6400741             -17.4173
       ...           ...                  ...                  ...
         7        2.0000           -0.4564566             -12.4208
         8        2.0000           -0.4181508             -11.3785
         9        2.0000           -0.3907552             -10.6330
        10        2.0000           -0.3429809              -9.3330
        11        2.0000           -0.3139672              -8.5435
        12        2.0000           -0.2738083              -7.4507
        13        2.0000           -0.2050012              -5.5784 (HOMO)
        14                         -0.1307344              -3.5575 (LUMO)
        15                         -0.0189022              -0.5144
        16                          0.1023816               2.7859
        17                          0.1786306               4.8608
        18                          0.2426298               6.6023
       ...                                ...                  ...
        23                          0.7342488              19.9799
      -------------------------------------------------------------
                  HL-Gap            0.0742667 Eh            2.0209 eV
             Fermi-level           -0.1678678 Eh           -4.5679 eV
 
 localization/xTB-IFF output generation
 averaging CT terms over            1  occ. levels
 averaging CT terms over            1  virt. levels
 dipole moment from electron density (au)
     X       Y       Z   
  -0.7936   1.0544  -0.2996  total (Debye):    3.440
cpu  time for init local    0.00 s
wall time for init local    0.00 s
 doing rotations ...
 initialization of trafo matrix to unity

 converged in     16 iterations, threshold :   0.95420095D-06
 doing transformations ...
 lmo centers(Z=2) and atoms on file <lmocent.coord>
 LMO Fii/eV  ncent    charge center   contributions...
    1 sigma -15.11   1.87   0.08509   1.88104   0.23656    3O :  0.63    4C :  0.37
    2 sigma -14.69   1.77   1.65707   1.33714   0.41080    3O :  0.68    2C :  0.33
    3 LP    -13.97   1.01   1.66471   3.78587   0.16550    3O :  0.99
    4 sigma -12.88   1.99  -2.51296   2.25160   0.13232    7H :  0.55    4C :  0.45
    5 sigma -12.14   1.98   3.93565  -0.10533   0.61700    6H :  0.56    2C :  0.44
    6 LP    -12.12   1.32   0.44603   1.46105   1.30047    3O :  0.87    4C :  0.07
    7 sigma -11.97   1.98  -2.67583  -2.09341  -0.05086    8H :  0.55    5C :  0.45
    8 sigma -11.06   1.97  -0.37266  -1.74577   0.16645    5C :  0.57    1C :  0.42
    9 pi    -10.74   2.07  -1.37153   0.05980  -0.36675    4C :  0.52    5C :  0.47
   10 pi    -10.71   2.08  -1.45714   0.01484   0.66105    4C :  0.51    5C :  0.47
   11 pi     -9.65   2.12   1.72932  -0.90476  -0.11597    2C :  0.57    1C :  0.38
   12 pi     -9.63   2.13   1.63348  -0.94203   0.88826    2C :  0.57    1C :  0.38
   13 LP     -6.71   1.06   1.64548  -3.99657   0.26126    1C :  0.97
 starting deloc pi regularization ...
 thr    2.20000000000000      # pi deloc LMO           3
 files:
 coordprot.0/xtbscreen.xyz/xtblmoinfo/lmocent.coord
 with protonation site input, xtbdock and
 LMO center info written
 

 SCC (total)                   0 d,  0 h,  0 min,  0.020 sec
 SCC setup                      ...        0 min,  0.001 sec (  2.758%)
 Dispersion                     ...        0 min,  0.000 sec (  0.524%)
 classical contributions        ...        0 min,  0.000 sec (  0.221%)
 integral evaluation            ...        0 min,  0.001 sec (  5.499%)
 iterations                     ...        0 min,  0.004 sec ( 18.745%)
 molecular gradient             ...        0 min,  0.002 sec (  9.999%)
 printout                       ...        0 min,  0.013 sec ( 62.001%)

         :::::::::::::::::::::::::::::::::::::::::::::::::::::
         ::                     SUMMARY                     ::
         :::::::::::::::::::::::::::::::::::::::::::::::::::::
         :: total energy             -14.304171787488 Eh    ::
         :: total w/o Gsasa/hb       -14.296935014818 Eh    ::
         :: gradient norm              0.113380000973 Eh/a0 ::
         :: HOMO-LUMO gap              2.020899985047 eV    ::
         ::.................................................::
         :: SCC energy               -14.482777140860 Eh    ::
         :: -> isotropic ES            0.147021928493 Eh    ::
         :: -> anisotropic ES          0.004595534135 Eh    ::
         :: -> anisotropic XC          0.002625283316 Eh    ::
         :: -> dispersion             -0.005432467681 Eh    ::
         :: -> Gsolv                  -0.083847177655 Eh    ::
         ::    -> Gelec               -0.076610404985 Eh    ::
         ::    -> Gsasa               -0.013153532397 Eh    ::
         ::    -> Ghb                 -0.001277934321 Eh    ::
         ::    -> Gshift               0.007194694049 Eh    ::
         :: repulsion energy           0.178604801835 Eh    ::
         :: add. restraining           0.000000000000 Eh    ::
         :: total charge              -1.000000000000 e     ::
         :::::::::::::::::::::::::::::::::::::::::::::::::::::

      ----------------------------------------------------------- 
     |                   =====================                   |
     |                        A N C O P T                        |
     |                   =====================                   |
     |               Approximate Normal Coordinate               |
     |                Rational Function Optimizer                |
      ----------------------------------------------------------- 

          ...................................................
          :                      SETUP                      :
          :.................................................:
          :   optimization level            normal          :
          :   max. optcycles                   200          :
          :   ANC micro-cycles                  20          :
          :   degrees of freedom                18          :
          :.................................................:
          :   RF solver                   davidson          :
          :   write xtbopt.log                true          :
          :   linear?                        false          :
          :   energy convergence         0.5000000E-05 Eh   :
          :   grad. convergence          0.1000000E-02 Eh/α :
          :   maximium RF displ.         1.0000000          :
          :   Hlow (freq-cutoff)         0.1000000E-01      :
          :   Hmax (freq-cutoff)         5.0000000          :
          :   S6 in model hess.         20.0000000          :
          ...................................................

generating ANC from model Hessian ...
Using Lindh-Hessian (1995)
 Shifting diagonal of input Hessian by   0.000000000000000E+000
 Lowest  eigenvalues of input Hessian
    0.000000    0.000000    0.000000    0.000000    0.000000    0.000000
    0.020648    0.032372    0.061902    0.095064    0.098928    0.114239
    0.131258    0.206183    0.225522    0.312786    0.459696    0.649306
 Highest eigenvalues
    0.885565    1.366949    1.581224    1.624861    1.765248    1.830654
 

........................................................................
.............................. CYCLE    1 ..............................
........................................................................
   1    -14.4827771 -0.144828E+02  0.121E-05    2.02       0.0  T
   2    -14.4827771 -0.268230E-12  0.612E-06    2.02    5779.6  T
   3    -14.4827771 -0.284217E-13  0.409E-06    2.02    8652.3  T
     SCC iter.                  ...        0 min,  0.001 sec
     gradient                   ...        0 min,  0.002 sec
 * total energy  :   -14.3041718 Eh     change       -0.4829968E-09 Eh
   gradient norm :     0.1133802 Eh/α   predicted     0.0000000E+00 (-100.00%)
   displ. norm   :     0.2599637 α      lambda       -0.1938314E-01
   maximum displ.:     0.1847156 α      in ANC's #6, #9, #8, ...

........................................................................
.............................. CYCLE    2 ..............................
........................................................................
   1    -14.4882562 -0.144883E+02  0.834E-01    2.56       0.0  T
   2    -14.4884244 -0.168248E-03  0.511E-01    2.59       1.0  T
   3    -14.4883559  0.684916E-04  0.356E-01    2.58       1.0  T
   4    -14.4887233 -0.367337E-03  0.424E-02    2.58       1.0  T
   5    -14.4887233 -0.992587E-08  0.297E-02    2.58       1.2  T
   6    -14.4887243 -0.103458E-05  0.832E-03    2.59       4.2  T
   7    -14.4887247 -0.360478E-06  0.238E-03    2.58      14.9  T
   8    -14.4887247 -0.100156E-07  0.621E-04    2.58      56.9  T
   9    -14.4887247 -0.133779E-08  0.203E-04    2.58     174.0  T
     SCC iter.                  ...        0 min,  0.002 sec
     gradient                   ...        0 min,  0.002 sec
 * total energy  :   -14.3173562 Eh     change       -0.1318441E-01 Eh
   gradient norm :     0.0474716 Eh/α   predicted    -0.1034654E-01 ( -21.52%)
   displ. norm   :     0.1934349 α      lambda       -0.5197593E-02
   maximum displ.:     0.1714395 α      in ANC's #6, #9, #17, ...

........................................................................
.............................. CYCLE    3 ..............................
........................................................................
   1    -14.4903213 -0.144903E+02  0.482E-01    2.91       0.0  T
   2    -14.4903896 -0.682769E-04  0.303E-01    2.90       1.0  T
   3    -14.4903837  0.581643E-05  0.196E-01    2.91       1.0  T
   4    -14.4904894 -0.105614E-03  0.215E-02    2.91       1.6  T
   5    -14.4904895 -0.161020E-06  0.181E-02    2.90       1.9  T
   6    -14.4904902 -0.691340E-06  0.556E-03    2.91       6.4  T
   7    -14.4904902 -0.288533E-07  0.172E-03    2.91      20.6  T
   8    -14.4904902 -0.488647E-08  0.591E-04    2.91      59.8  T
   9    -14.4904902 -0.471974E-09  0.119E-04    2.91     296.5  T
     SCC iter.                  ...        0 min,  0.002 sec
     gradient                   ...        0 min,  0.002 sec
 * total energy  :   -14.3202844 Eh     change       -0.2928247E-02 Eh
   gradient norm :     0.0154865 Eh/α   predicted    -0.2696035E-02 (  -7.93%)
   displ. norm   :     0.0491959 α      lambda       -0.3621901E-03
   maximum displ.:     0.0424013 α      in ANC's #6, #4, #14, ...

........................................................................
.............................. CYCLE    4 ..............................
........................................................................
   1    -14.4911457 -0.144911E+02  0.105E-01    2.92       0.0  T
   2    -14.4911473 -0.162440E-05  0.605E-02    2.92       1.0  T
   3    -14.4911456  0.170223E-05  0.183E-02    2.93       1.9  T
   4    -14.4911476 -0.198251E-05  0.430E-03    2.92       8.2  T
   5    -14.4911477 -0.736913E-07  0.117E-03    2.92      30.2  T
   6    -14.4911477 -0.545541E-09  0.821E-04    2.92      43.1  T
   7    -14.4911477 -0.157606E-08  0.167E-04    2.92     211.7  T
     SCC iter.                  ...        0 min,  0.002 sec
     gradient                   ...        0 min,  0.002 sec
 * total energy  :   -14.3205325 Eh     change       -0.2481045E-03 Eh
   gradient norm :     0.0084786 Eh/α   predicted    -0.1815342E-03 ( -26.83%)
   displ. norm   :     0.0281128 α      lambda       -0.1272872E-03
   maximum displ.:     0.0176201 α      in ANC's #4, #6, #12, ...

........................................................................
.............................. CYCLE    5 ..............................
........................................................................
   1    -14.4920484 -0.144920E+02  0.693E-02    2.90       0.0  T
   2    -14.4920503 -0.182175E-05  0.396E-02    2.91       1.0  T
   3    -14.4920489  0.131012E-05  0.232E-02    2.91       1.5  T
   4    -14.4920509 -0.196751E-05  0.355E-03    2.91       9.9  T
   5    -14.4920509 -0.215120E-07  0.138E-03    2.91      25.6  T
   6    -14.4920509 -0.750855E-09  0.766E-04    2.91      46.2  T
   7    -14.4920509 -0.198060E-08  0.276E-04    2.91     128.2  T
     SCC iter.                  ...        0 min,  0.002 sec
     gradient                   ...        0 min,  0.002 sec
 * total energy  :   -14.3206027 Eh     change       -0.7016059E-04 Eh
   gradient norm :     0.0023375 Eh/α   predicted    -0.6369368E-04 (  -9.22%)
   displ. norm   :     0.0040752 α      lambda       -0.5935008E-05
   maximum displ.:     0.0027470 α      in ANC's #4, #14, #15, ...

........................................................................
.............................. CYCLE    6 ..............................
........................................................................
   1    -14.4923016 -0.144923E+02  0.124E-02    2.90       0.0  T
   2    -14.4923018 -0.260909E-06  0.854E-03    2.90       4.1  T
   3    -14.4923019 -0.119700E-06  0.447E-03    2.90       7.9  T
   4    -14.4923020 -0.208954E-07  0.160E-03    2.90      22.1  T
   5    -14.4923020 -0.499766E-08  0.453E-04    2.90      78.0  T
   6    -14.4923020 -0.324857E-09  0.333E-04    2.90     106.1  T
     SCC iter.                  ...        0 min,  0.001 sec
     gradient                   ...        0 min,  0.002 sec
 * total energy  :   -14.3206067 Eh     change       -0.4028417E-05 Eh
   gradient norm :     0.0012540 Eh/α   predicted    -0.2967290E-05 ( -26.34%)
   displ. norm   :     0.0049200 α      lambda       -0.2641159E-05
   maximum displ.:     0.0022311 α      in ANC's #4, #15, #6, ...

........................................................................
.............................. CYCLE    7 ..............................
........................................................................
   1    -14.4924810 -0.144925E+02  0.158E-02    2.89       0.0  T
   2    -14.4924816 -0.656540E-06  0.129E-02    2.90       2.7  T
   3    -14.4924822 -0.570688E-06  0.558E-03    2.90       6.3  T
   4    -14.4924822  0.363393E-08  0.229E-03    2.90      15.5  T
   5    -14.4924822 -0.847592E-08  0.713E-04    2.90      49.6  T
   6    -14.4924822 -0.178482E-08  0.353E-04    2.90     100.2  T
     SCC iter.                  ...        0 min,  0.001 sec
     gradient                   ...        0 min,  0.002 sec
 * total energy  :   -14.3206081 Eh     change       -0.1406162E-05 Eh
   gradient norm :     0.0006414 Eh/α   predicted    -0.1321429E-05 (  -6.03%)
   displ. norm   :     0.0036518 α      lambda       -0.7179160E-06
   maximum displ.:     0.0019838 α      in ANC's #1, #5, #2, ...

   *** GEOMETRY OPTIMIZATION CONVERGED AFTER 7 ITERATIONS ***

------------------------------------------------------------------------
 total energy gain   :        -0.0164364 Eh      -10.3140 kcal/mol
 total RMSD          :         0.1762335 a0        0.0933 Å
 total power (kW/mol):        -6.1648069 (step)-1158.9829 (real)
------------------------------------------------------------------------

 ANCopt (total)                0 d,  0 h,  0 min,  0.037 sec
 optimizer setup                ...        0 min,  0.000 sec (  1.226%)
 model hessian                  ...        0 min,  0.001 sec (  1.466%)
 ANC generation                 ...        0 min,  0.000 sec (  0.421%)
 coordinate transformation      ...        0 min,  0.000 sec (  0.221%)
 single point calculation       ...        0 min,  0.033 sec ( 89.604%)
 optimization log               ...        0 min,  0.001 sec (  3.924%)
 hessian update                 ...        0 min,  0.000 sec (  0.204%)
 rational function              ...        0 min,  0.001 sec (  1.441%)

================
 final structure:
================
8
 xtb: 6.4.1 (afa7bdf)
C         0.56092273644475   -1.25190369613626    0.14425874664169
C         1.28239017708307   -0.10218984405424    0.25322918200045
O         0.53886882383157    1.10855861744953    0.23457998125629
C        -0.73822330184854    0.67024612954709    0.10228897285311
C        -0.78333933787372   -0.68524201667163    0.04594902529766
H         2.35400098351995    0.06989507475324    0.35564769755477
H        -1.50404692004545    1.43727042369102    0.06435555916491
H        -1.71057316111163   -1.24663468857877   -0.05841516476886
 
 Bond Distances (Angstroems)
 ---------------------------
C1-C2=1.3617         C1-C5=1.4621         C2-C1=1.3617         C2-O3=1.4209         C2-H6=1.0902         O3-C2=1.4209         
O3-C4=1.3567         C4-O3=1.3567         C4-C5=1.3574         C4-H7=1.0846         C5-C1=1.4621         C5-C4=1.3574         
C5-H8=1.0890         H6-C2=1.0902         H7-C4=1.0846         H8-C5=1.0890         
 C  H  Rav=1.0879 sigma=0.0024  Rmin=1.0846  Rmax=1.0902     3
 C  C  Rav=1.3937 sigma=0.0484  Rmin=1.3574  Rmax=1.4621     3
 O  C  Rav=1.3888 sigma=0.0321  Rmin=1.3567  Rmax=1.4209     2
 
 selected bond angles (degree)
 --------------------
C5-C1-C2= 99.51                O3-C2-C1=116.18                H6-C2-C1=131.42                H6-C2-O3=112.40                
C4-O3-C2=102.62                C5-C4-O3=110.97                H7-C4-O3=116.08                H7-C4-C5=132.95                
C4-C5-C1=110.71                H8-C5-C1=126.12                H8-C5-C4=123.17                
 
 selected dihedral angles (degree)
 ---------------------------------
O3-C2-C1-C5=  0.05            H6-C2-C1-C5=180.00            C4-O3-C2-C1=359.92            C4-O3-C2-H6=179.96            
C5-C4-O3-C2=  0.08            H7-C4-O3-C2=179.98            C4-C5-C1-C2=  0.00            H8-C5-C1-C2=180.02            
C1-C5-C4-O3=359.95            C1-C5-C4-H7=180.07            H8-C5-C4-O3=179.93            H8-C5-C4-H7=  0.05            
           -------------------------------------------------
          |                Final Singlepoint                |
           -------------------------------------------------

          ...................................................
          :                      SETUP                      :
          :.................................................:
          :  # basis functions                  23          :
          :  # atomic orbitals                  23          :
          :  # shells                           13          :
          :  # electrons                        26          :
          :  max. iterations                   250          :
          :  Hamiltonian                  GFN2-xTB          :
          :  restarted?                      false          :
          :  GBSA solvation                   true          :
          :  PC potential                    false          :
          :  electronic temp.          300.0000000     K    :
          :  accuracy                    1.0000000          :
          :  -> integral cutoff          0.2500000E+02      :
          :  -> integral neglect         0.1000000E-07      :
          :  -> SCF convergence          0.1000000E-05 Eh   :
          :  -> wf. convergence          0.1000000E-03 e    :
          :  Broyden damping             0.4000000          :
          ...................................................

 iter      E             dE          RMSdq      gap      omega  full diag
   1    -14.4924822 -0.144925E+02  0.139E-04    2.90       0.0  T
   2    -14.4924822 -0.219842E-10  0.797E-05    2.90     443.7  T
   3    -14.4924822 -0.335376E-11  0.635E-05    2.90     557.2  T

   *** convergence criteria satisfied after 3 iterations ***

         #    Occupation            Energy/Eh            Energy/eV
      -------------------------------------------------------------
         1        2.0000           -0.6451905             -17.5565
       ...           ...                  ...                  ...
         7        2.0000           -0.4617470             -12.5648
         8        2.0000           -0.4189099             -11.3991
         9        2.0000           -0.3941281             -10.7248
        10        2.0000           -0.3444056              -9.3718
        11        2.0000           -0.3173815              -8.6364
        12        2.0000           -0.2791103              -7.5950
        13        2.0000           -0.2310544              -6.2873 (HOMO)
        14                         -0.1246569              -3.3921 (LUMO)
        15                         -0.0423320              -1.1519
        16                          0.1351094               3.6765
        17                          0.1876260               5.1056
        18                          0.2033349               5.5330
       ...                                ...                  ...
        23                          0.7173786              19.5209
      -------------------------------------------------------------
                  HL-Gap            0.1063975 Eh            2.8952 eV
             Fermi-level           -0.1778557 Eh           -4.8397 eV
 
 localization/xTB-IFF output generation
 averaging CT terms over            1  occ. levels
 averaging CT terms over            1  virt. levels
 dipole moment from electron density (au)
     X       Y       Z   
  -0.8975   1.1383  -0.3059  total (Debye):    3.766
cpu  time for init local    0.00 s
wall time for init local    0.00 s
 doing rotations ...
 initialization of trafo matrix to unity

 converged in     13 iterations, threshold :   0.96343499D-06
 doing transformations ...
 lmo centers(Z=2) and atoms on file <lmocent.coord>
 LMO Fii/eV  ncent    charge center   contributions...
    1 sigma -15.22   1.86   0.02017   1.79690   0.44807    3O :  0.63    4C :  0.37
    2 sigma -14.66   1.76   1.56433   1.25352   0.51569    3O :  0.68    2C :  0.32
    3 LP    -14.07   1.02   1.55310   3.63859   1.02719    3O :  0.99
    4 sigma -13.00   1.99  -2.41360   2.27061   0.14257    7H :  0.55    4C :  0.45
    5 LP    -12.23   1.29   0.62014   1.51531  -0.59841    3O :  0.88
    6 sigma -12.14   1.97   3.86384   0.02892   0.61612    6H :  0.56    2C :  0.44
    7 sigma -12.05   1.98  -2.70508  -2.04910  -0.05149    8H :  0.55    5C :  0.45
    8 pi    -11.05   2.04  -1.48610  -0.02521   0.66667    4C :  0.52    5C :  0.47
    9 pi    -11.04   2.05  -1.38657   0.01213  -0.38995    4C :  0.52    5C :  0.47
   10 sigma -11.01   1.98  -0.34123  -1.84496   0.16928    5C :  0.58    1C :  0.41
   11 pi     -9.79   2.08   1.68836  -1.11673   0.89369    2C :  0.57    1C :  0.39
   12 pi     -9.77   2.08   1.77579  -1.07541  -0.13358    2C :  0.57    1C :  0.39
   13 LP     -7.32   1.05   1.65947  -4.24973   0.25292    1C :  0.98
 starting deloc pi regularization ...
 thr    2.20000000000000      # pi deloc LMO           3
 files:
 coordprot.0/xtbscreen.xyz/xtblmoinfo/lmocent.coord
 with protonation site input, xtbdock and
 LMO center info written
 

 SCC (total)                   0 d,  0 h,  0 min,  0.010 sec
 SCC setup                      ...        0 min,  0.000 sec (  2.538%)
 Dispersion                     ...        0 min,  0.000 sec (  0.354%)
 classical contributions        ...        0 min,  0.000 sec (  0.135%)
 integral evaluation            ...        0 min,  0.001 sec (  9.495%)
 iterations                     ...        0 min,  0.001 sec (  7.309%)
 molecular gradient             ...        0 min,  0.002 sec ( 17.716%)
 printout                       ...        0 min,  0.006 sec ( 62.033%)

         :::::::::::::::::::::::::::::::::::::::::::::::::::::
         ::                     SUMMARY                     ::
         :::::::::::::::::::::::::::::::::::::::::::::::::::::
         :: total energy             -14.320608144337 Eh    ::
         :: total w/o Gsasa/hb       -14.313307745868 Eh    ::
         :: gradient norm              0.000641811644 Eh/a0 ::
         :: HOMO-LUMO gap              2.895224587962 eV    ::
         ::.................................................::
         :: SCC energy               -14.492482212950 Eh    ::
         :: -> isotropic ES            0.143151575440 Eh    ::
         :: -> anisotropic ES          0.003295672136 Eh    ::
         :: -> anisotropic XC          0.003486797208 Eh    ::
         :: -> dispersion             -0.005444269343 Eh    ::
         :: -> Gsolv                  -0.083938919469 Eh    ::
         ::    -> Gelec               -0.076638521000 Eh    ::
         ::    -> Gsasa               -0.013176154674 Eh    ::
         ::    -> Ghb                 -0.001318937843 Eh    ::
         ::    -> Gshift               0.007194694049 Eh    ::
         :: repulsion energy           0.171873489493 Eh    ::
         :: add. restraining           0.000000000000 Eh    ::
         :: total charge              -1.000000000000 e     ::
         :::::::::::::::::::::::::::::::::::::::::::::::::::::

           -------------------------------------------------
          |                Property Printout                |
           -------------------------------------------------

    * Orbital Energies and Occupations

         #    Occupation            Energy/Eh            Energy/eV
      -------------------------------------------------------------
         1        2.0000           -0.6451905             -17.5565
         2        2.0000           -0.5632933             -15.3280
         3        2.0000           -0.5459329             -14.8556
         4        2.0000           -0.4897130             -13.3258
         5        2.0000           -0.4809164             -13.0864
         6        2.0000           -0.4637923             -12.6204
         7        2.0000           -0.4617470             -12.5648
         8        2.0000           -0.4189099             -11.3991
         9        2.0000           -0.3941281             -10.7248
        10        2.0000           -0.3444056              -9.3718
        11        2.0000           -0.3173815              -8.6364
        12        2.0000           -0.2791103              -7.5950
        13        2.0000           -0.2310544              -6.2873 (HOMO)
        14                         -0.1246569              -3.3921 (LUMO)
        15                         -0.0423320              -1.1519
        16                          0.1351094               3.6765
        17                          0.1876260               5.1056
        18                          0.2033349               5.5330
        19                          0.2262340               6.1561
        20                          0.3176298               8.6431
        21                          0.4719051              12.8412
        22                          0.5662524              15.4085
        23                          0.7173786              19.5209
      -------------------------------------------------------------
                  HL-Gap            0.1063975 Eh            2.8952 eV
             Fermi-level           -0.1778557 Eh           -4.8397 eV

     #   Z          covCN         q      C6AA      α(0)
     1   6 C        2.004    -0.376    43.127    10.606
     2   6 C        3.136     0.039    26.906     8.490
     3   8 O        1.713    -0.352    19.924     6.027
     4   6 C        2.985     0.053    26.812     8.494
     5   6 C        3.093    -0.069    29.610     8.919
     6   1 H        0.925    -0.115     6.134     3.873
     7   1 H        0.925    -0.084     5.031     3.508
     8   1 H        0.925    -0.094     5.372     3.625

 Mol. C6AA /au·bohr⁶  :       1143.049466
 Mol. C8AA /au·bohr⁸  :      27077.098839
 Mol. α(0) /au        :         53.540484


Wiberg/Mayer (AO) data.
largest (>0.10) Wiberg bond orders for each atom

 ---------------------------------------------------------------------------
     #   Z sym  total        # sym  WBO       # sym  WBO       # sym  WBO
 ---------------------------------------------------------------------------
     1   6 C    3.002 --     2 C    1.686     5 C    1.185
     2   6 C    3.795 --     1 C    1.686     6 H    0.957     3 O    0.955
                             4 C    0.152
     3   8 O    2.267 --     4 C    1.099     2 C    0.955     5 C    0.115
     4   6 C    3.882 --     5 C    1.636     3 O    1.099     7 H    0.956
                             2 C    0.152
     5   6 C    3.942 --     4 C    1.636     1 C    1.185     8 H    0.965
                             3 O    0.115
     6   1 H    0.987 --     2 C    0.957
     7   1 H    0.993 --     4 C    0.956
     8   1 H    0.991 --     5 C    0.965
 ---------------------------------------------------------------------------

Topologies differ in total number of bonds
Writing topology from bond orders to xtbtopo.mol

molecular dipole:
                 x           y           z       tot (Debye)
 q only:       -0.603       0.281      -0.313
   full:       -0.897       1.138      -0.306       3.766
molecular quadrupole (traceless):
                xx          xy          yy          xz          yz          zz
 q only:       -2.073      -0.286      -2.479      -0.866      -0.194       4.551
  q+dip:        0.359       1.962      -4.589      -0.650       0.285       4.229
   full:        0.469       1.719      -5.745      -0.743       0.177       5.276

           -------------------------------------------------
          |                Geometry Summary                 |
           -------------------------------------------------

      molecular mass/u    :       67.0661708
   center of mass at/Å    :        0.1732406       0.0231876       0.1591290
  moments of inertia/u·Å² :        0.5129696E+02   0.5334968E+02   0.1046466E+03
rotational constants/cm⁻¹ :        0.3286283E+00   0.3159837E+00   0.1610910E+00

 * 6 selected distances

     #   Z          #   Z                                           value/Å
     1   6 C        2   6 C                                       1.3617018 (max)
     3   8 O        4   6 C                                       1.3566809
     4   6 C        5   6 C                                       1.3574085
     2   6 C        6   1 H                                       1.0901617
     4   6 C        7   1 H                                       1.0845511 (min)
     5   6 C        8   1 H                                       1.0889519

 * 3 distinct bonds (by element types)

   Z      Z             #   av. dist./Å        max./Å        min./Å
   1 H    6 C           3     1.0878882     1.0901617     1.0845511
   6 C    6 C           2     1.3595551     1.3617018     1.3574085
   6 C    8 O           1     1.3566809     1.3566809     1.3566809


optimized geometry written to: xtbopt.xyz


           -------------------------------------------------
          | TOTAL ENERGY              -14.320608144337 Eh   |
          | GRADIENT NORM               0.000641811644 Eh/α |
          | HOMO-LUMO GAP               2.895224587962 eV   |
           -------------------------------------------------

------------------------------------------------------------------------
 * finished run on 2022/11/04 at 10:55:59.328     
------------------------------------------------------------------------
 total:
 * wall-time:     0 d,  0 h,  0 min,  0.126 sec
 *  cpu-time:     0 d,  0 h,  0 min,  0.088 sec
 * ratio c/w:     0.697 speedup
 SCF:
 * wall-time:     0 d,  0 h,  0 min,  0.021 sec
 *  cpu-time:     0 d,  0 h,  0 min,  0.013 sec
 * ratio c/w:     0.618 speedup
 ANC optimizer:
 * wall-time:     0 d,  0 h,  0 min,  0.051 sec
 *  cpu-time:     0 d,  0 h,  0 min,  0.046 sec
 * ratio c/w:     0.891 speedup

