8
 energy: -14.320608144337 gnorm: 0.000641811644 xtb: 6.4.1 (afa7bdf)
C         0.56092273644475   -1.25190369613626    0.14425874664169
C         1.28239017708307   -0.10218984405424    0.25322918200045
O         0.53886882383157    1.10855861744953    0.23457998125629
C        -0.73822330184854    0.67024612954709    0.10228897285311
C        -0.78333933787372   -0.68524201667163    0.04594902529766
H         2.35400098351995    0.06989507475324    0.35564769755477
H        -1.50404692004545    1.43727042369102    0.06435555916491
H        -1.71057316111163   -1.24663468857877   -0.05841516476886
